VARIABLES ="X", "Y", "PSI"
ZONE T = "BLOCK1", I = 129, J = 129, F = POINT

0.000000 	 0.000000 	 0.000000 
0.007752 	 0.000000 	 0.000000 
0.015504 	 0.000000 	 0.000000 
0.023256 	 0.000000 	 0.000000 
0.031008 	 0.000000 	 0.000000 
0.038760 	 0.000000 	 0.000000 
0.046512 	 0.000000 	 0.000000 
0.054264 	 0.000000 	 0.000000 
0.062016 	 0.000000 	 0.000000 
0.069767 	 0.000000 	 0.000000 
0.077519 	 0.000000 	 0.000000 
0.085271 	 0.000000 	 0.000000 
0.093023 	 0.000000 	 0.000000 
0.100775 	 0.000000 	 0.000000 
0.108527 	 0.000000 	 0.000000 
0.116279 	 0.000000 	 0.000000 
0.124031 	 0.000000 	 0.000000 
0.131783 	 0.000000 	 0.000000 
0.139535 	 0.000000 	 0.000000 
0.147287 	 0.000000 	 0.000000 
0.155039 	 0.000000 	 0.000000 
0.162791 	 0.000000 	 0.000000 
0.170543 	 0.000000 	 0.000000 
0.178295 	 0.000000 	 0.000000 
0.186047 	 0.000000 	 0.000000 
0.193798 	 0.000000 	 0.000000 
0.201550 	 0.000000 	 0.000000 
0.209302 	 0.000000 	 0.000000 
0.217054 	 0.000000 	 0.000000 
0.224806 	 0.000000 	 0.000000 
0.232558 	 0.000000 	 0.000000 
0.240310 	 0.000000 	 0.000000 
0.248062 	 0.000000 	 0.000000 
0.255814 	 0.000000 	 0.000000 
0.263566 	 0.000000 	 0.000000 
0.271318 	 0.000000 	 0.000000 
0.279070 	 0.000000 	 0.000000 
0.286822 	 0.000000 	 0.000000 
0.294574 	 0.000000 	 0.000000 
0.302326 	 0.000000 	 0.000000 
0.310078 	 0.000000 	 0.000000 
0.317829 	 0.000000 	 0.000000 
0.325581 	 0.000000 	 0.000000 
0.333333 	 0.000000 	 0.000000 
0.341085 	 0.000000 	 0.000000 
0.348837 	 0.000000 	 0.000000 
0.356589 	 0.000000 	 0.000000 
0.364341 	 0.000000 	 0.000000 
0.372093 	 0.000000 	 0.000000 
0.379845 	 0.000000 	 0.000000 
0.387597 	 0.000000 	 0.000000 
0.395349 	 0.000000 	 0.000000 
0.403101 	 0.000000 	 0.000000 
0.410853 	 0.000000 	 0.000000 
0.418605 	 0.000000 	 0.000000 
0.426357 	 0.000000 	 0.000000 
0.434109 	 0.000000 	 0.000000 
0.441860 	 0.000000 	 0.000000 
0.449612 	 0.000000 	 0.000000 
0.457364 	 0.000000 	 0.000000 
0.465116 	 0.000000 	 0.000000 
0.472868 	 0.000000 	 0.000000 
0.480620 	 0.000000 	 0.000000 
0.488372 	 0.000000 	 0.000000 
0.496124 	 0.000000 	 0.000000 
0.503876 	 0.000000 	 0.000000 
0.511628 	 0.000000 	 0.000000 
0.519380 	 0.000000 	 0.000000 
0.527132 	 0.000000 	 0.000000 
0.534884 	 0.000000 	 0.000000 
0.542636 	 0.000000 	 0.000000 
0.550388 	 0.000000 	 0.000000 
0.558140 	 0.000000 	 0.000000 
0.565891 	 0.000000 	 0.000000 
0.573643 	 0.000000 	 0.000000 
0.581395 	 0.000000 	 0.000000 
0.589147 	 0.000000 	 0.000000 
0.596899 	 0.000000 	 0.000000 
0.604651 	 0.000000 	 0.000000 
0.612403 	 0.000000 	 0.000000 
0.620155 	 0.000000 	 0.000000 
0.627907 	 0.000000 	 0.000000 
0.635659 	 0.000000 	 0.000000 
0.643411 	 0.000000 	 0.000000 
0.651163 	 0.000000 	 0.000000 
0.658915 	 0.000000 	 0.000000 
0.666667 	 0.000000 	 0.000000 
0.674419 	 0.000000 	 0.000000 
0.682171 	 0.000000 	 0.000000 
0.689922 	 0.000000 	 0.000000 
0.697674 	 0.000000 	 0.000000 
0.705426 	 0.000000 	 0.000000 
0.713178 	 0.000000 	 0.000000 
0.720930 	 0.000000 	 0.000000 
0.728682 	 0.000000 	 0.000000 
0.736434 	 0.000000 	 0.000000 
0.744186 	 0.000000 	 0.000000 
0.751938 	 0.000000 	 0.000000 
0.759690 	 0.000000 	 0.000000 
0.767442 	 0.000000 	 0.000000 
0.775194 	 0.000000 	 0.000000 
0.782946 	 0.000000 	 0.000000 
0.790698 	 0.000000 	 0.000000 
0.798450 	 0.000000 	 0.000000 
0.806202 	 0.000000 	 0.000000 
0.813953 	 0.000000 	 0.000000 
0.821705 	 0.000000 	 0.000000 
0.829457 	 0.000000 	 0.000000 
0.837209 	 0.000000 	 0.000000 
0.844961 	 0.000000 	 0.000000 
0.852713 	 0.000000 	 0.000000 
0.860465 	 0.000000 	 0.000000 
0.868217 	 0.000000 	 0.000000 
0.875969 	 0.000000 	 0.000000 
0.883721 	 0.000000 	 0.000000 
0.891473 	 0.000000 	 0.000000 
0.899225 	 0.000000 	 0.000000 
0.906977 	 0.000000 	 0.000000 
0.914729 	 0.000000 	 0.000000 
0.922481 	 0.000000 	 0.000000 
0.930233 	 0.000000 	 0.000000 
0.937984 	 0.000000 	 0.000000 
0.945736 	 0.000000 	 0.000000 
0.953488 	 0.000000 	 0.000000 
0.961240 	 0.000000 	 0.000000 
0.968992 	 0.000000 	 0.000000 
0.976744 	 0.000000 	 0.000000 
0.984496 	 0.000000 	 0.000000 
0.992248 	 0.000000 	 0.000000 
0.000000 	 0.007752 	 0.000000 
0.007752 	 0.007752 	 0.000126 
0.015504 	 0.007752 	 0.000264 
0.023256 	 0.007752 	 0.000434 
0.031008 	 0.007752 	 0.000616 
0.038760 	 0.007752 	 0.000793 
0.046512 	 0.007752 	 0.000954 
0.054264 	 0.007752 	 0.001096 
0.062016 	 0.007752 	 0.001219 
0.069767 	 0.007752 	 0.001325 
0.077519 	 0.007752 	 0.001416 
0.085271 	 0.007752 	 0.001496 
0.093023 	 0.007752 	 0.001565 
0.100775 	 0.007752 	 0.001626 
0.108527 	 0.007752 	 0.001680 
0.116279 	 0.007752 	 0.001729 
0.124031 	 0.007752 	 0.001772 
0.131783 	 0.007752 	 0.001811 
0.139535 	 0.007752 	 0.001846 
0.147287 	 0.007752 	 0.001878 
0.155039 	 0.007752 	 0.001907 
0.162791 	 0.007752 	 0.001933 
0.170543 	 0.007752 	 0.001958 
0.178295 	 0.007752 	 0.001980 
0.186047 	 0.007752 	 0.002001 
0.193798 	 0.007752 	 0.002020 
0.201550 	 0.007752 	 0.002038 
0.209302 	 0.007752 	 0.002054 
0.217054 	 0.007752 	 0.002070 
0.224806 	 0.007752 	 0.002084 
0.232558 	 0.007752 	 0.002097 
0.240310 	 0.007752 	 0.002109 
0.248062 	 0.007752 	 0.002121 
0.255814 	 0.007752 	 0.002132 
0.263566 	 0.007752 	 0.002142 
0.271318 	 0.007752 	 0.002151 
0.279070 	 0.007752 	 0.002160 
0.286822 	 0.007752 	 0.002168 
0.294574 	 0.007752 	 0.002175 
0.302326 	 0.007752 	 0.002183 
0.310078 	 0.007752 	 0.002189 
0.317829 	 0.007752 	 0.002196 
0.325581 	 0.007752 	 0.002201 
0.333333 	 0.007752 	 0.002207 
0.341085 	 0.007752 	 0.002212 
0.348837 	 0.007752 	 0.002217 
0.356589 	 0.007752 	 0.002221 
0.364341 	 0.007752 	 0.002226 
0.372093 	 0.007752 	 0.002229 
0.379845 	 0.007752 	 0.002233 
0.387597 	 0.007752 	 0.002237 
0.395349 	 0.007752 	 0.002240 
0.403101 	 0.007752 	 0.002243 
0.410853 	 0.007752 	 0.002245 
0.418605 	 0.007752 	 0.002248 
0.426357 	 0.007752 	 0.002250 
0.434109 	 0.007752 	 0.002253 
0.441860 	 0.007752 	 0.002255 
0.449612 	 0.007752 	 0.002256 
0.457364 	 0.007752 	 0.002258 
0.465116 	 0.007752 	 0.002260 
0.472868 	 0.007752 	 0.002261 
0.480620 	 0.007752 	 0.002262 
0.488372 	 0.007752 	 0.002263 
0.496124 	 0.007752 	 0.002264 
0.503876 	 0.007752 	 0.002265 
0.511628 	 0.007752 	 0.002266 
0.519380 	 0.007752 	 0.002266 
0.527132 	 0.007752 	 0.002266 
0.534884 	 0.007752 	 0.002267 
0.542636 	 0.007752 	 0.002267 
0.550388 	 0.007752 	 0.002267 
0.558140 	 0.007752 	 0.002266 
0.565891 	 0.007752 	 0.002266 
0.573643 	 0.007752 	 0.002265 
0.581395 	 0.007752 	 0.002265 
0.589147 	 0.007752 	 0.002264 
0.596899 	 0.007752 	 0.002263 
0.604651 	 0.007752 	 0.002262 
0.612403 	 0.007752 	 0.002260 
0.620155 	 0.007752 	 0.002259 
0.627907 	 0.007752 	 0.002257 
0.635659 	 0.007752 	 0.002255 
0.643411 	 0.007752 	 0.002253 
0.651163 	 0.007752 	 0.002250 
0.658915 	 0.007752 	 0.002247 
0.666667 	 0.007752 	 0.002244 
0.674419 	 0.007752 	 0.002241 
0.682171 	 0.007752 	 0.002238 
0.689922 	 0.007752 	 0.002234 
0.697674 	 0.007752 	 0.002229 
0.705426 	 0.007752 	 0.002225 
0.713178 	 0.007752 	 0.002220 
0.720930 	 0.007752 	 0.002214 
0.728682 	 0.007752 	 0.002208 
0.736434 	 0.007752 	 0.002202 
0.744186 	 0.007752 	 0.002195 
0.751938 	 0.007752 	 0.002187 
0.759690 	 0.007752 	 0.002179 
0.767442 	 0.007752 	 0.002170 
0.775194 	 0.007752 	 0.002160 
0.782946 	 0.007752 	 0.002149 
0.790698 	 0.007752 	 0.002138 
0.798450 	 0.007752 	 0.002125 
0.806202 	 0.007752 	 0.002111 
0.813953 	 0.007752 	 0.002096 
0.821705 	 0.007752 	 0.002079 
0.829457 	 0.007752 	 0.002061 
0.837209 	 0.007752 	 0.002040 
0.844961 	 0.007752 	 0.002018 
0.852713 	 0.007752 	 0.001992 
0.860465 	 0.007752 	 0.001964 
0.868217 	 0.007752 	 0.001933 
0.875969 	 0.007752 	 0.001897 
0.883721 	 0.007752 	 0.001857 
0.891473 	 0.007752 	 0.001811 
0.899225 	 0.007752 	 0.001759 
0.906977 	 0.007752 	 0.001699 
0.914729 	 0.007752 	 0.001628 
0.922481 	 0.007752 	 0.001546 
0.930233 	 0.007752 	 0.001449 
0.937984 	 0.007752 	 0.001333 
0.945736 	 0.007752 	 0.001194 
0.953488 	 0.007752 	 0.001028 
0.961240 	 0.007752 	 0.000829 
0.968992 	 0.007752 	 0.000599 
0.976744 	 0.007752 	 0.000350 
0.984496 	 0.007752 	 0.000127 
0.992248 	 0.007752 	 0.000014 
0.000000 	 0.015504 	 0.000000 
0.007752 	 0.015504 	 0.000169 
0.015504 	 0.015504 	 0.000369 
0.023256 	 0.015504 	 0.000633 
0.031008 	 0.015504 	 0.000935 
0.038760 	 0.015504 	 0.001246 
0.046512 	 0.015504 	 0.001544 
0.054264 	 0.015504 	 0.001817 
0.062016 	 0.015504 	 0.002063 
0.069767 	 0.015504 	 0.002281 
0.077519 	 0.015504 	 0.002473 
0.085271 	 0.015504 	 0.002644 
0.093023 	 0.015504 	 0.002795 
0.100775 	 0.015504 	 0.002929 
0.108527 	 0.015504 	 0.003050 
0.116279 	 0.015504 	 0.003158 
0.124031 	 0.015504 	 0.003255 
0.131783 	 0.015504 	 0.003343 
0.139535 	 0.015504 	 0.003423 
0.147287 	 0.015504 	 0.003496 
0.155039 	 0.015504 	 0.003563 
0.162791 	 0.015504 	 0.003625 
0.170543 	 0.015504 	 0.003681 
0.178295 	 0.015504 	 0.003733 
0.186047 	 0.015504 	 0.003781 
0.193798 	 0.015504 	 0.003825 
0.201550 	 0.015504 	 0.003867 
0.209302 	 0.015504 	 0.003905 
0.217054 	 0.015504 	 0.003940 
0.224806 	 0.015504 	 0.003973 
0.232558 	 0.015504 	 0.004004 
0.240310 	 0.015504 	 0.004033 
0.248062 	 0.015504 	 0.004060 
0.255814 	 0.015504 	 0.004085 
0.263566 	 0.015504 	 0.004108 
0.271318 	 0.015504 	 0.004130 
0.279070 	 0.015504 	 0.004150 
0.286822 	 0.015504 	 0.004169 
0.294574 	 0.015504 	 0.004187 
0.302326 	 0.015504 	 0.004203 
0.310078 	 0.015504 	 0.004219 
0.317829 	 0.015504 	 0.004233 
0.325581 	 0.015504 	 0.004247 
0.333333 	 0.015504 	 0.004260 
0.341085 	 0.015504 	 0.004272 
0.348837 	 0.015504 	 0.004283 
0.356589 	 0.015504 	 0.004293 
0.364341 	 0.015504 	 0.004303 
0.372093 	 0.015504 	 0.004312 
0.379845 	 0.015504 	 0.004320 
0.387597 	 0.015504 	 0.004328 
0.395349 	 0.015504 	 0.004335 
0.403101 	 0.015504 	 0.004342 
0.410853 	 0.015504 	 0.004348 
0.418605 	 0.015504 	 0.004354 
0.426357 	 0.015504 	 0.004359 
0.434109 	 0.015504 	 0.004364 
0.441860 	 0.015504 	 0.004369 
0.449612 	 0.015504 	 0.004373 
0.457364 	 0.015504 	 0.004377 
0.465116 	 0.015504 	 0.004380 
0.472868 	 0.015504 	 0.004383 
0.480620 	 0.015504 	 0.004386 
0.488372 	 0.015504 	 0.004388 
0.496124 	 0.015504 	 0.004390 
0.503876 	 0.015504 	 0.004392 
0.511628 	 0.015504 	 0.004393 
0.519380 	 0.015504 	 0.004394 
0.527132 	 0.015504 	 0.004395 
0.534884 	 0.015504 	 0.004395 
0.542636 	 0.015504 	 0.004395 
0.550388 	 0.015504 	 0.004395 
0.558140 	 0.015504 	 0.004394 
0.565891 	 0.015504 	 0.004393 
0.573643 	 0.015504 	 0.004392 
0.581395 	 0.015504 	 0.004390 
0.589147 	 0.015504 	 0.004388 
0.596899 	 0.015504 	 0.004386 
0.604651 	 0.015504 	 0.004383 
0.612403 	 0.015504 	 0.004380 
0.620155 	 0.015504 	 0.004376 
0.627907 	 0.015504 	 0.004372 
0.635659 	 0.015504 	 0.004367 
0.643411 	 0.015504 	 0.004362 
0.651163 	 0.015504 	 0.004356 
0.658915 	 0.015504 	 0.004349 
0.666667 	 0.015504 	 0.004342 
0.674419 	 0.015504 	 0.004335 
0.682171 	 0.015504 	 0.004326 
0.689922 	 0.015504 	 0.004317 
0.697674 	 0.015504 	 0.004307 
0.705426 	 0.015504 	 0.004296 
0.713178 	 0.015504 	 0.004284 
0.720930 	 0.015504 	 0.004271 
0.728682 	 0.015504 	 0.004257 
0.736434 	 0.015504 	 0.004242 
0.744186 	 0.015504 	 0.004226 
0.751938 	 0.015504 	 0.004208 
0.759690 	 0.015504 	 0.004188 
0.767442 	 0.015504 	 0.004167 
0.775194 	 0.015504 	 0.004144 
0.782946 	 0.015504 	 0.004119 
0.790698 	 0.015504 	 0.004092 
0.798450 	 0.015504 	 0.004062 
0.806202 	 0.015504 	 0.004029 
0.813953 	 0.015504 	 0.003993 
0.821705 	 0.015504 	 0.003954 
0.829457 	 0.015504 	 0.003910 
0.837209 	 0.015504 	 0.003862 
0.844961 	 0.015504 	 0.003809 
0.852713 	 0.015504 	 0.003750 
0.860465 	 0.015504 	 0.003685 
0.868217 	 0.015504 	 0.003611 
0.875969 	 0.015504 	 0.003529 
0.883721 	 0.015504 	 0.003436 
0.891473 	 0.015504 	 0.003330 
0.899225 	 0.015504 	 0.003210 
0.906977 	 0.015504 	 0.003073 
0.914729 	 0.015504 	 0.002914 
0.922481 	 0.015504 	 0.002731 
0.930233 	 0.015504 	 0.002518 
0.937984 	 0.015504 	 0.002269 
0.945736 	 0.015504 	 0.001979 
0.953488 	 0.015504 	 0.001643 
0.961240 	 0.015504 	 0.001261 
0.968992 	 0.015504 	 0.000845 
0.976744 	 0.015504 	 0.000435 
0.984496 	 0.015504 	 0.000113 
0.992248 	 0.015504 	 -0.000006 
0.000000 	 0.023256 	 0.000000 
0.007752 	 0.023256 	 0.000169 
0.015504 	 0.023256 	 0.000389 
0.023256 	 0.023256 	 0.000699 
0.031008 	 0.023256 	 0.001073 
0.038760 	 0.023256 	 0.001478 
0.046512 	 0.023256 	 0.001881 
0.054264 	 0.023256 	 0.002266 
0.062016 	 0.023256 	 0.002621 
0.069767 	 0.023256 	 0.002945 
0.077519 	 0.023256 	 0.003238 
0.085271 	 0.023256 	 0.003501 
0.093023 	 0.023256 	 0.003738 
0.100775 	 0.023256 	 0.003952 
0.108527 	 0.023256 	 0.004145 
0.116279 	 0.023256 	 0.004319 
0.124031 	 0.023256 	 0.004478 
0.131783 	 0.023256 	 0.004623 
0.139535 	 0.023256 	 0.004755 
0.147287 	 0.023256 	 0.004876 
0.155039 	 0.023256 	 0.004987 
0.162791 	 0.023256 	 0.005089 
0.170543 	 0.023256 	 0.005183 
0.178295 	 0.023256 	 0.005271 
0.186047 	 0.023256 	 0.005351 
0.193798 	 0.023256 	 0.005426 
0.201550 	 0.023256 	 0.005495 
0.209302 	 0.023256 	 0.005560 
0.217054 	 0.023256 	 0.005620 
0.224806 	 0.023256 	 0.005676 
0.232558 	 0.023256 	 0.005728 
0.240310 	 0.023256 	 0.005777 
0.248062 	 0.023256 	 0.005822 
0.255814 	 0.023256 	 0.005864 
0.263566 	 0.023256 	 0.005904 
0.271318 	 0.023256 	 0.005941 
0.279070 	 0.023256 	 0.005975 
0.286822 	 0.023256 	 0.006007 
0.294574 	 0.023256 	 0.006038 
0.302326 	 0.023256 	 0.006066 
0.310078 	 0.023256 	 0.006092 
0.317829 	 0.023256 	 0.006117 
0.325581 	 0.023256 	 0.006140 
0.333333 	 0.023256 	 0.006161 
0.341085 	 0.023256 	 0.006181 
0.348837 	 0.023256 	 0.006200 
0.356589 	 0.023256 	 0.006218 
0.364341 	 0.023256 	 0.006234 
0.372093 	 0.023256 	 0.006249 
0.379845 	 0.023256 	 0.006263 
0.387597 	 0.023256 	 0.006276 
0.395349 	 0.023256 	 0.006289 
0.403101 	 0.023256 	 0.006300 
0.410853 	 0.023256 	 0.006310 
0.418605 	 0.023256 	 0.006320 
0.426357 	 0.023256 	 0.006329 
0.434109 	 0.023256 	 0.006337 
0.441860 	 0.023256 	 0.006345 
0.449612 	 0.023256 	 0.006352 
0.457364 	 0.023256 	 0.006358 
0.465116 	 0.023256 	 0.006363 
0.472868 	 0.023256 	 0.006368 
0.480620 	 0.023256 	 0.006373 
0.488372 	 0.023256 	 0.006377 
0.496124 	 0.023256 	 0.006380 
0.503876 	 0.023256 	 0.006383 
0.511628 	 0.023256 	 0.006385 
0.519380 	 0.023256 	 0.006386 
0.527132 	 0.023256 	 0.006387 
0.534884 	 0.023256 	 0.006388 
0.542636 	 0.023256 	 0.006388 
0.550388 	 0.023256 	 0.006387 
0.558140 	 0.023256 	 0.006386 
0.565891 	 0.023256 	 0.006384 
0.573643 	 0.023256 	 0.006382 
0.581395 	 0.023256 	 0.006379 
0.589147 	 0.023256 	 0.006376 
0.596899 	 0.023256 	 0.006371 
0.604651 	 0.023256 	 0.006366 
0.612403 	 0.023256 	 0.006361 
0.620155 	 0.023256 	 0.006354 
0.627907 	 0.023256 	 0.006347 
0.635659 	 0.023256 	 0.006339 
0.643411 	 0.023256 	 0.006330 
0.651163 	 0.023256 	 0.006320 
0.658915 	 0.023256 	 0.006309 
0.666667 	 0.023256 	 0.006297 
0.674419 	 0.023256 	 0.006284 
0.682171 	 0.023256 	 0.006270 
0.689922 	 0.023256 	 0.006254 
0.697674 	 0.023256 	 0.006237 
0.705426 	 0.023256 	 0.006218 
0.713178 	 0.023256 	 0.006198 
0.720930 	 0.023256 	 0.006176 
0.728682 	 0.023256 	 0.006152 
0.736434 	 0.023256 	 0.006126 
0.744186 	 0.023256 	 0.006098 
0.751938 	 0.023256 	 0.006068 
0.759690 	 0.023256 	 0.006034 
0.767442 	 0.023256 	 0.005998 
0.775194 	 0.023256 	 0.005959 
0.782946 	 0.023256 	 0.005916 
0.790698 	 0.023256 	 0.005869 
0.798450 	 0.023256 	 0.005818 
0.806202 	 0.023256 	 0.005762 
0.813953 	 0.023256 	 0.005701 
0.821705 	 0.023256 	 0.005634 
0.829457 	 0.023256 	 0.005560 
0.837209 	 0.023256 	 0.005479 
0.844961 	 0.023256 	 0.005389 
0.852713 	 0.023256 	 0.005289 
0.860465 	 0.023256 	 0.005178 
0.868217 	 0.023256 	 0.005055 
0.875969 	 0.023256 	 0.004916 
0.883721 	 0.023256 	 0.004761 
0.891473 	 0.023256 	 0.004586 
0.899225 	 0.023256 	 0.004388 
0.906977 	 0.023256 	 0.004163 
0.914729 	 0.023256 	 0.003907 
0.922481 	 0.023256 	 0.003615 
0.930233 	 0.023256 	 0.003280 
0.937984 	 0.023256 	 0.002898 
0.945736 	 0.023256 	 0.002464 
0.953488 	 0.023256 	 0.001978 
0.961240 	 0.023256 	 0.001450 
0.968992 	 0.023256 	 0.000907 
0.976744 	 0.023256 	 0.000410 
0.984496 	 0.023256 	 0.000063 
0.992248 	 0.023256 	 -0.000029 
0.000000 	 0.031008 	 0.000000 
0.007752 	 0.031008 	 0.000151 
0.015504 	 0.031008 	 0.000366 
0.023256 	 0.031008 	 0.000691 
0.031008 	 0.031008 	 0.001104 
0.038760 	 0.031008 	 0.001569 
0.046512 	 0.031008 	 0.002049 
0.054264 	 0.031008 	 0.002520 
0.062016 	 0.031008 	 0.002968 
0.069767 	 0.031008 	 0.003385 
0.077519 	 0.031008 	 0.003770 
0.085271 	 0.031008 	 0.004122 
0.093023 	 0.031008 	 0.004443 
0.100775 	 0.031008 	 0.004736 
0.108527 	 0.031008 	 0.005003 
0.116279 	 0.031008 	 0.005247 
0.124031 	 0.031008 	 0.005471 
0.131783 	 0.031008 	 0.005676 
0.139535 	 0.031008 	 0.005864 
0.147287 	 0.031008 	 0.006037 
0.155039 	 0.031008 	 0.006197 
0.162791 	 0.031008 	 0.006344 
0.170543 	 0.031008 	 0.006481 
0.178295 	 0.031008 	 0.006607 
0.186047 	 0.031008 	 0.006725 
0.193798 	 0.031008 	 0.006834 
0.201550 	 0.031008 	 0.006935 
0.209302 	 0.031008 	 0.007030 
0.217054 	 0.031008 	 0.007118 
0.224806 	 0.031008 	 0.007200 
0.232558 	 0.031008 	 0.007276 
0.240310 	 0.031008 	 0.007348 
0.248062 	 0.031008 	 0.007414 
0.255814 	 0.031008 	 0.007477 
0.263566 	 0.031008 	 0.007535 
0.271318 	 0.031008 	 0.007589 
0.279070 	 0.031008 	 0.007640 
0.286822 	 0.031008 	 0.007688 
0.294574 	 0.031008 	 0.007732 
0.302326 	 0.031008 	 0.007774 
0.310078 	 0.031008 	 0.007813 
0.317829 	 0.031008 	 0.007849 
0.325581 	 0.031008 	 0.007883 
0.333333 	 0.031008 	 0.007915 
0.341085 	 0.031008 	 0.007945 
0.348837 	 0.031008 	 0.007972 
0.356589 	 0.031008 	 0.007998 
0.364341 	 0.031008 	 0.008022 
0.372093 	 0.031008 	 0.008045 
0.379845 	 0.031008 	 0.008066 
0.387597 	 0.031008 	 0.008085 
0.395349 	 0.031008 	 0.008103 
0.403101 	 0.031008 	 0.008120 
0.410853 	 0.031008 	 0.008135 
0.418605 	 0.031008 	 0.008149 
0.426357 	 0.031008 	 0.008162 
0.434109 	 0.031008 	 0.008174 
0.441860 	 0.031008 	 0.008185 
0.449612 	 0.031008 	 0.008195 
0.457364 	 0.031008 	 0.008204 
0.465116 	 0.031008 	 0.008212 
0.472868 	 0.031008 	 0.008220 
0.480620 	 0.031008 	 0.008226 
0.488372 	 0.031008 	 0.008232 
0.496124 	 0.031008 	 0.008236 
0.503876 	 0.031008 	 0.008240 
0.511628 	 0.031008 	 0.008243 
0.519380 	 0.031008 	 0.008245 
0.527132 	 0.031008 	 0.008247 
0.534884 	 0.031008 	 0.008248 
0.542636 	 0.031008 	 0.008248 
0.550388 	 0.031008 	 0.008247 
0.558140 	 0.031008 	 0.008245 
0.565891 	 0.031008 	 0.008242 
0.573643 	 0.031008 	 0.008239 
0.581395 	 0.031008 	 0.008234 
0.589147 	 0.031008 	 0.008229 
0.596899 	 0.031008 	 0.008222 
0.604651 	 0.031008 	 0.008215 
0.612403 	 0.031008 	 0.008207 
0.620155 	 0.031008 	 0.008197 
0.627907 	 0.031008 	 0.008186 
0.635659 	 0.031008 	 0.008174 
0.643411 	 0.031008 	 0.008161 
0.651163 	 0.031008 	 0.008146 
0.658915 	 0.031008 	 0.008130 
0.666667 	 0.031008 	 0.008112 
0.674419 	 0.031008 	 0.008093 
0.682171 	 0.031008 	 0.008072 
0.689922 	 0.031008 	 0.008048 
0.697674 	 0.031008 	 0.008023 
0.705426 	 0.031008 	 0.007996 
0.713178 	 0.031008 	 0.007966 
0.720930 	 0.031008 	 0.007933 
0.728682 	 0.031008 	 0.007898 
0.736434 	 0.031008 	 0.007859 
0.744186 	 0.031008 	 0.007817 
0.751938 	 0.031008 	 0.007772 
0.759690 	 0.031008 	 0.007723 
0.767442 	 0.031008 	 0.007669 
0.775194 	 0.031008 	 0.007611 
0.782946 	 0.031008 	 0.007547 
0.790698 	 0.031008 	 0.007478 
0.798450 	 0.031008 	 0.007402 
0.806202 	 0.031008 	 0.007320 
0.813953 	 0.031008 	 0.007229 
0.821705 	 0.031008 	 0.007130 
0.829457 	 0.031008 	 0.007021 
0.837209 	 0.031008 	 0.006902 
0.844961 	 0.031008 	 0.006770 
0.852713 	 0.031008 	 0.006624 
0.860465 	 0.031008 	 0.006462 
0.868217 	 0.031008 	 0.006282 
0.875969 	 0.031008 	 0.006082 
0.883721 	 0.031008 	 0.005858 
0.891473 	 0.031008 	 0.005608 
0.899225 	 0.031008 	 0.005327 
0.906977 	 0.031008 	 0.005011 
0.914729 	 0.031008 	 0.004654 
0.922481 	 0.031008 	 0.004253 
0.930233 	 0.031008 	 0.003801 
0.937984 	 0.031008 	 0.003296 
0.945736 	 0.031008 	 0.002737 
0.953488 	 0.031008 	 0.002132 
0.961240 	 0.031008 	 0.001498 
0.968992 	 0.031008 	 0.000878 
0.976744 	 0.031008 	 0.000345 
0.984496 	 0.031008 	 0.000008 
0.992248 	 0.031008 	 -0.000048 
0.000000 	 0.038760 	 0.000000 
0.007752 	 0.038760 	 0.000125 
0.015504 	 0.038760 	 0.000324 
0.023256 	 0.038760 	 0.000645 
0.031008 	 0.038760 	 0.001073 
0.038760 	 0.038760 	 0.001572 
0.046512 	 0.038760 	 0.002104 
0.054264 	 0.038760 	 0.002639 
0.062016 	 0.038760 	 0.003160 
0.069767 	 0.038760 	 0.003656 
0.077519 	 0.038760 	 0.004120 
0.085271 	 0.038760 	 0.004552 
0.093023 	 0.038760 	 0.004952 
0.100775 	 0.038760 	 0.005321 
0.108527 	 0.038760 	 0.005660 
0.116279 	 0.038760 	 0.005973 
0.124031 	 0.038760 	 0.006262 
0.131783 	 0.038760 	 0.006528 
0.139535 	 0.038760 	 0.006774 
0.147287 	 0.038760 	 0.007002 
0.155039 	 0.038760 	 0.007213 
0.162791 	 0.038760 	 0.007408 
0.170543 	 0.038760 	 0.007590 
0.178295 	 0.038760 	 0.007758 
0.186047 	 0.038760 	 0.007915 
0.193798 	 0.038760 	 0.008061 
0.201550 	 0.038760 	 0.008198 
0.209302 	 0.038760 	 0.008325 
0.217054 	 0.038760 	 0.008443 
0.224806 	 0.038760 	 0.008554 
0.232558 	 0.038760 	 0.008657 
0.240310 	 0.038760 	 0.008754 
0.248062 	 0.038760 	 0.008845 
0.255814 	 0.038760 	 0.008929 
0.263566 	 0.038760 	 0.009008 
0.271318 	 0.038760 	 0.009082 
0.279070 	 0.038760 	 0.009151 
0.286822 	 0.038760 	 0.009216 
0.294574 	 0.038760 	 0.009277 
0.302326 	 0.038760 	 0.009333 
0.310078 	 0.038760 	 0.009386 
0.317829 	 0.038760 	 0.009436 
0.325581 	 0.038760 	 0.009482 
0.333333 	 0.038760 	 0.009525 
0.341085 	 0.038760 	 0.009566 
0.348837 	 0.038760 	 0.009603 
0.356589 	 0.038760 	 0.009639 
0.364341 	 0.038760 	 0.009671 
0.372093 	 0.038760 	 0.009702 
0.379845 	 0.038760 	 0.009730 
0.387597 	 0.038760 	 0.009757 
0.395349 	 0.038760 	 0.009781 
0.403101 	 0.038760 	 0.009804 
0.410853 	 0.038760 	 0.009825 
0.418605 	 0.038760 	 0.009844 
0.426357 	 0.038760 	 0.009862 
0.434109 	 0.038760 	 0.009878 
0.441860 	 0.038760 	 0.009893 
0.449612 	 0.038760 	 0.009906 
0.457364 	 0.038760 	 0.009919 
0.465116 	 0.038760 	 0.009930 
0.472868 	 0.038760 	 0.009939 
0.480620 	 0.038760 	 0.009948 
0.488372 	 0.038760 	 0.009955 
0.496124 	 0.038760 	 0.009962 
0.503876 	 0.038760 	 0.009967 
0.511628 	 0.038760 	 0.009971 
0.519380 	 0.038760 	 0.009974 
0.527132 	 0.038760 	 0.009976 
0.534884 	 0.038760 	 0.009977 
0.542636 	 0.038760 	 0.009976 
0.550388 	 0.038760 	 0.009975 
0.558140 	 0.038760 	 0.009973 
0.565891 	 0.038760 	 0.009969 
0.573643 	 0.038760 	 0.009964 
0.581395 	 0.038760 	 0.009958 
0.589147 	 0.038760 	 0.009951 
0.596899 	 0.038760 	 0.009942 
0.604651 	 0.038760 	 0.009932 
0.612403 	 0.038760 	 0.009920 
0.620155 	 0.038760 	 0.009907 
0.627907 	 0.038760 	 0.009892 
0.635659 	 0.038760 	 0.009876 
0.643411 	 0.038760 	 0.009858 
0.651163 	 0.038760 	 0.009838 
0.658915 	 0.038760 	 0.009816 
0.666667 	 0.038760 	 0.009791 
0.674419 	 0.038760 	 0.009765 
0.682171 	 0.038760 	 0.009736 
0.689922 	 0.038760 	 0.009704 
0.697674 	 0.038760 	 0.009669 
0.705426 	 0.038760 	 0.009632 
0.713178 	 0.038760 	 0.009591 
0.720930 	 0.038760 	 0.009546 
0.728682 	 0.038760 	 0.009498 
0.736434 	 0.038760 	 0.009445 
0.744186 	 0.038760 	 0.009388 
0.751938 	 0.038760 	 0.009326 
0.759690 	 0.038760 	 0.009259 
0.767442 	 0.038760 	 0.009186 
0.775194 	 0.038760 	 0.009106 
0.782946 	 0.038760 	 0.009019 
0.790698 	 0.038760 	 0.008925 
0.798450 	 0.038760 	 0.008822 
0.806202 	 0.038760 	 0.008710 
0.813953 	 0.038760 	 0.008587 
0.821705 	 0.038760 	 0.008453 
0.829457 	 0.038760 	 0.008305 
0.837209 	 0.038760 	 0.008144 
0.844961 	 0.038760 	 0.007966 
0.852713 	 0.038760 	 0.007769 
0.860465 	 0.038760 	 0.007553 
0.868217 	 0.038760 	 0.007313 
0.875969 	 0.038760 	 0.007048 
0.883721 	 0.038760 	 0.006753 
0.891473 	 0.038760 	 0.006424 
0.899225 	 0.038760 	 0.006059 
0.906977 	 0.038760 	 0.005651 
0.914729 	 0.038760 	 0.005198 
0.922481 	 0.038760 	 0.004694 
0.930233 	 0.038760 	 0.004136 
0.937984 	 0.038760 	 0.003525 
0.945736 	 0.038760 	 0.002865 
0.953488 	 0.038760 	 0.002169 
0.961240 	 0.038760 	 0.001466 
0.968992 	 0.038760 	 0.000806 
0.976744 	 0.038760 	 0.000268 
0.984496 	 0.038760 	 -0.000042 
0.992248 	 0.038760 	 -0.000064 
0.000000 	 0.046512 	 0.000000 
0.007752 	 0.046512 	 0.000098 
0.015504 	 0.046512 	 0.000275 
0.023256 	 0.046512 	 0.000581 
0.031008 	 0.046512 	 0.001008 
0.038760 	 0.046512 	 0.001522 
0.046512 	 0.046512 	 0.002085 
0.054264 	 0.046512 	 0.002666 
0.062016 	 0.046512 	 0.003242 
0.069767 	 0.046512 	 0.003801 
0.077519 	 0.046512 	 0.004332 
0.085271 	 0.046512 	 0.004834 
0.093023 	 0.046512 	 0.005304 
0.100775 	 0.046512 	 0.005742 
0.108527 	 0.046512 	 0.006149 
0.116279 	 0.046512 	 0.006528 
0.124031 	 0.046512 	 0.006880 
0.131783 	 0.046512 	 0.007207 
0.139535 	 0.046512 	 0.007510 
0.147287 	 0.046512 	 0.007792 
0.155039 	 0.046512 	 0.008055 
0.162791 	 0.046512 	 0.008299 
0.170543 	 0.046512 	 0.008527 
0.178295 	 0.046512 	 0.008739 
0.186047 	 0.046512 	 0.008938 
0.193798 	 0.046512 	 0.009122 
0.201550 	 0.046512 	 0.009295 
0.209302 	 0.046512 	 0.009457 
0.217054 	 0.046512 	 0.009608 
0.224806 	 0.046512 	 0.009749 
0.232558 	 0.046512 	 0.009881 
0.240310 	 0.046512 	 0.010005 
0.248062 	 0.046512 	 0.010120 
0.255814 	 0.046512 	 0.010229 
0.263566 	 0.046512 	 0.010330 
0.271318 	 0.046512 	 0.010425 
0.279070 	 0.046512 	 0.010514 
0.286822 	 0.046512 	 0.010597 
0.294574 	 0.046512 	 0.010675 
0.302326 	 0.046512 	 0.010748 
0.310078 	 0.046512 	 0.010817 
0.317829 	 0.046512 	 0.010881 
0.325581 	 0.046512 	 0.010940 
0.333333 	 0.046512 	 0.010996 
0.341085 	 0.046512 	 0.011048 
0.348837 	 0.046512 	 0.011097 
0.356589 	 0.046512 	 0.011142 
0.364341 	 0.046512 	 0.011184 
0.372093 	 0.046512 	 0.011224 
0.379845 	 0.046512 	 0.011260 
0.387597 	 0.046512 	 0.011294 
0.395349 	 0.046512 	 0.011326 
0.403101 	 0.046512 	 0.011355 
0.410853 	 0.046512 	 0.011382 
0.418605 	 0.046512 	 0.011407 
0.426357 	 0.046512 	 0.011430 
0.434109 	 0.046512 	 0.011451 
0.441860 	 0.046512 	 0.011470 
0.449612 	 0.046512 	 0.011488 
0.457364 	 0.046512 	 0.011504 
0.465116 	 0.046512 	 0.011518 
0.472868 	 0.046512 	 0.011530 
0.480620 	 0.046512 	 0.011541 
0.488372 	 0.046512 	 0.011551 
0.496124 	 0.046512 	 0.011559 
0.503876 	 0.046512 	 0.011565 
0.511628 	 0.046512 	 0.011571 
0.519380 	 0.046512 	 0.011574 
0.527132 	 0.046512 	 0.011577 
0.534884 	 0.046512 	 0.011578 
0.542636 	 0.046512 	 0.011577 
0.550388 	 0.046512 	 0.011576 
0.558140 	 0.046512 	 0.011572 
0.565891 	 0.046512 	 0.011567 
0.573643 	 0.046512 	 0.011561 
0.581395 	 0.046512 	 0.011553 
0.589147 	 0.046512 	 0.011544 
0.596899 	 0.046512 	 0.011532 
0.604651 	 0.046512 	 0.011519 
0.612403 	 0.046512 	 0.011504 
0.620155 	 0.046512 	 0.011487 
0.627907 	 0.046512 	 0.011468 
0.635659 	 0.046512 	 0.011447 
0.643411 	 0.046512 	 0.011423 
0.651163 	 0.046512 	 0.011397 
0.658915 	 0.046512 	 0.011369 
0.666667 	 0.046512 	 0.011337 
0.674419 	 0.046512 	 0.011303 
0.682171 	 0.046512 	 0.011265 
0.689922 	 0.046512 	 0.011224 
0.697674 	 0.046512 	 0.011179 
0.705426 	 0.046512 	 0.011130 
0.713178 	 0.046512 	 0.011077 
0.720930 	 0.046512 	 0.011020 
0.728682 	 0.046512 	 0.010957 
0.736434 	 0.046512 	 0.010889 
0.744186 	 0.046512 	 0.010816 
0.751938 	 0.046512 	 0.010735 
0.759690 	 0.046512 	 0.010648 
0.767442 	 0.046512 	 0.010554 
0.775194 	 0.046512 	 0.010451 
0.782946 	 0.046512 	 0.010339 
0.790698 	 0.046512 	 0.010218 
0.798450 	 0.046512 	 0.010085 
0.806202 	 0.046512 	 0.009941 
0.813953 	 0.046512 	 0.009783 
0.821705 	 0.046512 	 0.009611 
0.829457 	 0.046512 	 0.009423 
0.837209 	 0.046512 	 0.009216 
0.844961 	 0.046512 	 0.008990 
0.852713 	 0.046512 	 0.008741 
0.860465 	 0.046512 	 0.008468 
0.868217 	 0.046512 	 0.008166 
0.875969 	 0.046512 	 0.007834 
0.883721 	 0.046512 	 0.007467 
0.891473 	 0.046512 	 0.007062 
0.899225 	 0.046512 	 0.006614 
0.906977 	 0.046512 	 0.006120 
0.914729 	 0.046512 	 0.005576 
0.922481 	 0.046512 	 0.004979 
0.930233 	 0.046512 	 0.004330 
0.937984 	 0.046512 	 0.003632 
0.945736 	 0.046512 	 0.002893 
0.953488 	 0.046512 	 0.002134 
0.961240 	 0.046512 	 0.001390 
0.968992 	 0.046512 	 0.000716 
0.976744 	 0.046512 	 0.000192 
0.984496 	 0.046512 	 -0.000087 
0.992248 	 0.046512 	 -0.000076 
0.000000 	 0.054264 	 0.000000 
0.007752 	 0.054264 	 0.000073 
0.015504 	 0.054264 	 0.000224 