VARIABLES = "Y", "U"
ZONE T = "BLOCK1", I = 129, F = POINT

 0.000000 	 0.310137 
 0.007752 	 0.292013 
 0.015504 	 0.274171 
 0.023256 	 0.256625 
 0.031008 	 0.239392 
 0.038760 	 0.222486 
 0.046512 	 0.205921 
 0.054264 	 0.189710 
 0.062016 	 0.173862 
 0.069767 	 0.158388 
 0.077519 	 0.143294 
 0.085271 	 0.128587 
 0.093023 	 0.114270 
 0.100775 	 0.100347 
 0.108527 	 0.086818 
 0.116279 	 0.073683 
 0.124031 	 0.060940 
 0.131783 	 0.048588 
 0.139535 	 0.036623 
 0.147287 	 0.025041 
 0.155039 	 0.013837 
 0.162791 	 0.003005 
 0.170543 	 -0.007460 
 0.178295 	 -0.017564 
 0.186047 	 -0.027314 
 0.193798 	 -0.036716 
 0.201550 	 -0.045778 
 0.209302 	 -0.054507 
 0.217054 	 -0.062909 
 0.224806 	 -0.070992 
 0.232558 	 -0.078763 
 0.240310 	 -0.086229 
 0.248062 	 -0.093398 
 0.255814 	 -0.100277 
 0.263566 	 -0.106872 
 0.271318 	 -0.113192 
 0.279070 	 -0.119242 
 0.286822 	 -0.125030 
 0.294574 	 -0.130564 
 0.302326 	 -0.135848 
 0.310078 	 -0.140891 
 0.317829 	 -0.145698 
 0.325581 	 -0.150276 
 0.333333 	 -0.154629 
 0.341085 	 -0.158764 
 0.348837 	 -0.162687 
 0.356589 	 -0.166400 
 0.364341 	 -0.169910 
 0.372093 	 -0.173219 
 0.379845 	 -0.176332 
 0.387597 	 -0.179250 
 0.395349 	 -0.181977 
 0.403101 	 -0.184514 
 0.410853 	 -0.186861 
 0.418605 	 -0.189020 
 0.426357 	 -0.190990 
 0.434109 	 -0.192771 
 0.441860 	 -0.194359 
 0.449612 	 -0.195754 
 0.457364 	 -0.196953 
 0.465116 	 -0.197951 
 0.472868 	 -0.198745 
 0.480620 	 -0.199330 
 0.488372 	 -0.199701 
 0.496124 	 -0.199852 
 0.503876 	 -0.199777 
 0.511628 	 -0.199470 
 0.519380 	 -0.198923 
 0.527132 	 -0.198131 
 0.534884 	 -0.197085 
 0.542636 	 -0.195779 
 0.550388 	 -0.194205 
 0.558140 	 -0.192355 
 0.565891 	 -0.190224 
 0.573643 	 -0.187804 
 0.581395 	 -0.185087 
 0.589147 	 -0.182068 
 0.596899 	 -0.178741 
 0.604651 	 -0.175098 
 0.612403 	 -0.171136 
 0.620155 	 -0.166847 
 0.627907 	 -0.162229 
 0.635659 	 -0.157275 
 0.643411 	 -0.151981 
 0.651163 	 -0.146344 
 0.658915 	 -0.140358 
 0.666667 	 -0.134020 
 0.674419 	 -0.127325 
 0.682171 	 -0.120269 
 0.689922 	 -0.112848 
 0.697674 	 -0.105055 
 0.705426 	 -0.096886 
 0.713178 	 -0.088332 
 0.720930 	 -0.079386 
 0.728682 	 -0.070039 
 0.736434 	 -0.060281 
 0.744186 	 -0.050099 
 0.751938 	 -0.039479 
 0.759690 	 -0.028405 
 0.767442 	 -0.016859 
 0.775194 	 -0.004819 
 0.782946 	 0.007736 
 0.790698 	 0.020834 
 0.798450 	 0.034501 
 0.806202 	 0.048770 
 0.813953 	 0.063673 
 0.821705 	 0.079247 
 0.829457 	 0.095527 
 0.837209 	 0.112554 
 0.844961 	 0.130368 
 0.852713 	 0.149007 
 0.860465 	 0.168513 
 0.868217 	 0.188923 
 0.875969 	 0.210270 
 0.883721 	 0.232587 
 0.891473 	 0.255896 
 0.899225 	 0.280216 
 0.906977 	 0.305552 
 0.914729 	 0.331901 
 0.922481 	 0.359246 
 0.930233 	 0.387554 
 0.937984 	 0.416775 
 0.945736 	 0.446843 
 0.953488 	 0.477670 
 0.961240 	 0.509150 
 0.968992 	 0.541159 
 0.976744 	 0.573551 
 0.984496 	 0.606169 
 0.992248 	 0.638842 
