VARIABLES = "X", "V"
ZONE T = "BLOCK1", I = 129, F = POINT

 0.000000 	 0.001974 
 0.007752 	 0.005728 
 0.015504 	 0.009292 
 0.023256 	 0.012668 
 0.031008 	 0.015862 
 0.038760 	 0.018878 
 0.046512 	 0.021722 
 0.054264 	 0.024400 
 0.062016 	 0.026917 
 0.069767 	 0.029281 
 0.077519 	 0.031497 
 0.085271 	 0.033573 
 0.093023 	 0.035515 
 0.100775 	 0.037329 
 0.108527 	 0.039021 
 0.116279 	 0.040597 
 0.124031 	 0.042063 
 0.131783 	 0.043425 
 0.139535 	 0.044686 
 0.147287 	 0.045853 
 0.155039 	 0.046928 
 0.162791 	 0.047916 
 0.170543 	 0.048819 
 0.178295 	 0.049642 
 0.186047 	 0.050386 
 0.193798 	 0.051053 
 0.201550 	 0.051646 
 0.209302 	 0.052166 
 0.217054 	 0.052613 
 0.224806 	 0.052988 
 0.232558 	 0.053293 
 0.240310 	 0.053526 
 0.248062 	 0.053689 
 0.255814 	 0.053781 
 0.263566 	 0.053801 
 0.271318 	 0.053749 
 0.279070 	 0.053624 
 0.286822 	 0.053426 
 0.294574 	 0.053154 
 0.302326 	 0.052807 
 0.310078 	 0.052383 
 0.317829 	 0.051883 
 0.325581 	 0.051304 
 0.333333 	 0.050647 
 0.341085 	 0.049910 
 0.348837 	 0.049093 
 0.356589 	 0.048194 
 0.364341 	 0.047214 
 0.372093 	 0.046150 
 0.379845 	 0.045004 
 0.387597 	 0.043775 
 0.395349 	 0.042462 
 0.403101 	 0.041064 
 0.410853 	 0.039583 
 0.418605 	 0.038018 
 0.426357 	 0.036369 
 0.434109 	 0.034637 
 0.441860 	 0.032822 
 0.449612 	 0.030925 
 0.457364 	 0.028947 
 0.465116 	 0.026888 
 0.472868 	 0.024751 
 0.480620 	 0.022536 
 0.488372 	 0.020245 
 0.496124 	 0.017880 
 0.503876 	 0.015444 
 0.511628 	 0.012938 
 0.519380 	 0.010366 
 0.527132 	 0.007729 
 0.534884 	 0.005033 
 0.542636 	 0.002279 
 0.550388 	 -0.000527 
 0.558140 	 -0.003383 
 0.565891 	 -0.006282 
 0.573643 	 -0.009221 
 0.581395 	 -0.012193 
 0.589147 	 -0.015194 
 0.596899 	 -0.018216 
 0.604651 	 -0.021254 
 0.612403 	 -0.024299 
 0.620155 	 -0.027346 
 0.627907 	 -0.030384 
 0.635659 	 -0.033407 
 0.643411 	 -0.036406 
 0.651163 	 -0.039370 
 0.658915 	 -0.042290 
 0.666667 	 -0.045156 
 0.674419 	 -0.047957 
 0.682171 	 -0.050682 
 0.689922 	 -0.053319 
 0.697674 	 -0.055857 
 0.705426 	 -0.058283 
 0.713178 	 -0.060585 
 0.720930 	 -0.062751 
 0.728682 	 -0.064768 
 0.736434 	 -0.066623 
 0.744186 	 -0.068305 
 0.751938 	 -0.069799 
 0.759690 	 -0.071095 
 0.767442 	 -0.072180 
 0.775194 	 -0.073044 
 0.782946 	 -0.073676 
 0.790698 	 -0.074066 
 0.798450 	 -0.074206 
 0.806202 	 -0.074088 
 0.813953 	 -0.073705 
 0.821705 	 -0.073052 
 0.829457 	 -0.072126 
 0.837209 	 -0.070924 
 0.844961 	 -0.069447 
 0.852713 	 -0.067695 
 0.860465 	 -0.065673 
 0.868217 	 -0.063384 
 0.875969 	 -0.060838 
 0.883721 	 -0.058042 
 0.891473 	 -0.055008 
 0.899225 	 -0.051749 
 0.906977 	 -0.048280 
 0.914729 	 -0.044619 
 0.922481 	 -0.040783 
 0.930233 	 -0.036793 
 0.937984 	 -0.032670 
 0.945736 	 -0.028437 
 0.953488 	 -0.024119 
 0.961240 	 -0.019740 
 0.968992 	 -0.015326 
 0.976744 	 -0.010904 
 0.984496 	 -0.006500 
 0.992248 	 -0.002142 
