VARIABLES ="X", "Y", "U", "V"
ZONE T = "BLOCK1", I = 129, J = 129, F = POINT

0.000000 	 0.000000 	 0.000000 	 0.000000 
0.007752 	 0.000000 	 0.014681 	 0.000000 
0.015504 	 0.000000 	 0.050187 	 0.000000 
0.023256 	 0.000000 	 0.090853 	 0.000000 
0.031008 	 0.000000 	 0.127275 	 0.000000 
0.038760 	 0.000000 	 0.156843 	 0.000000 
0.046512 	 0.000000 	 0.180058 	 0.000000 
0.054264 	 0.000000 	 0.198238 	 0.000000 
0.062016 	 0.000000 	 0.212640 	 0.000000 
0.069767 	 0.000000 	 0.224242 	 0.000000 
0.077519 	 0.000000 	 0.233752 	 0.000000 
0.085271 	 0.000000 	 0.241677 	 0.000000 
0.093023 	 0.000000 	 0.248381 	 0.000000 
0.100775 	 0.000000 	 0.254125 	 0.000000 
0.108527 	 0.000000 	 0.259103 	 0.000000 
0.116279 	 0.000000 	 0.263460 	 0.000000 
0.124031 	 0.000000 	 0.267308 	 0.000000 
0.131783 	 0.000000 	 0.270730 	 0.000000 
0.139535 	 0.000000 	 0.273795 	 0.000000 
0.147287 	 0.000000 	 0.276556 	 0.000000 
0.155039 	 0.000000 	 0.279057 	 0.000000 
0.162791 	 0.000000 	 0.281332 	 0.000000 
0.170543 	 0.000000 	 0.283410 	 0.000000 
0.178295 	 0.000000 	 0.285314 	 0.000000 
0.186047 	 0.000000 	 0.287066 	 0.000000 
0.193798 	 0.000000 	 0.288682 	 0.000000 
0.201550 	 0.000000 	 0.290177 	 0.000000 
0.209302 	 0.000000 	 0.291562 	 0.000000 
0.217054 	 0.000000 	 0.292849 	 0.000000 
0.224806 	 0.000000 	 0.294046 	 0.000000 
0.232558 	 0.000000 	 0.295162 	 0.000000 
0.240310 	 0.000000 	 0.296203 	 0.000000 
0.248062 	 0.000000 	 0.297177 	 0.000000 
0.255814 	 0.000000 	 0.298088 	 0.000000 
0.263566 	 0.000000 	 0.298942 	 0.000000 
0.271318 	 0.000000 	 0.299743 	 0.000000 
0.279070 	 0.000000 	 0.300494 	 0.000000 
0.286822 	 0.000000 	 0.301200 	 0.000000 
0.294574 	 0.000000 	 0.301863 	 0.000000 
0.302326 	 0.000000 	 0.302487 	 0.000000 
0.310078 	 0.000000 	 0.303075 	 0.000000 
0.317829 	 0.000000 	 0.303627 	 0.000000 
0.325581 	 0.000000 	 0.304148 	 0.000000 
0.333333 	 0.000000 	 0.304638 	 0.000000 
0.341085 	 0.000000 	 0.305099 	 0.000000 
0.348837 	 0.000000 	 0.305534 	 0.000000 
0.356589 	 0.000000 	 0.305944 	 0.000000 
0.364341 	 0.000000 	 0.306330 	 0.000000 
0.372093 	 0.000000 	 0.306693 	 0.000000 
0.379845 	 0.000000 	 0.307035 	 0.000000 
0.387597 	 0.000000 	 0.307356 	 0.000000 
0.395349 	 0.000000 	 0.307658 	 0.000000 
0.403101 	 0.000000 	 0.307942 	 0.000000 
0.410853 	 0.000000 	 0.308208 	 0.000000 
0.418605 	 0.000000 	 0.308458 	 0.000000 
0.426357 	 0.000000 	 0.308691 	 0.000000 
0.434109 	 0.000000 	 0.308908 	 0.000000 
0.441860 	 0.000000 	 0.309110 	 0.000000 
0.449612 	 0.000000 	 0.309298 	 0.000000 
0.457364 	 0.000000 	 0.309471 	 0.000000 
0.465116 	 0.000000 	 0.309631 	 0.000000 
0.472868 	 0.000000 	 0.309777 	 0.000000 
0.480620 	 0.000000 	 0.309910 	 0.000000 
0.488372 	 0.000000 	 0.310030 	 0.000000 
0.496124 	 0.000000 	 0.310137 	 0.000000 
0.503876 	 0.000000 	 0.310231 	 0.000000 
0.511628 	 0.000000 	 0.310313 	 0.000000 
0.519380 	 0.000000 	 0.310382 	 0.000000 
0.527132 	 0.000000 	 0.310438 	 0.000000 
0.534884 	 0.000000 	 0.310481 	 0.000000 
0.542636 	 0.000000 	 0.310512 	 0.000000 
0.550388 	 0.000000 	 0.310530 	 0.000000 
0.558140 	 0.000000 	 0.310534 	 0.000000 
0.565891 	 0.000000 	 0.310525 	 0.000000 
0.573643 	 0.000000 	 0.310503 	 0.000000 
0.581395 	 0.000000 	 0.310466 	 0.000000 
0.589147 	 0.000000 	 0.310415 	 0.000000 
0.596899 	 0.000000 	 0.310349 	 0.000000 
0.604651 	 0.000000 	 0.310268 	 0.000000 
0.612403 	 0.000000 	 0.310171 	 0.000000 
0.620155 	 0.000000 	 0.310058 	 0.000000 
0.627907 	 0.000000 	 0.309927 	 0.000000 
0.635659 	 0.000000 	 0.309778 	 0.000000 
0.643411 	 0.000000 	 0.309611 	 0.000000 
0.651163 	 0.000000 	 0.309425 	 0.000000 
0.658915 	 0.000000 	 0.309218 	 0.000000 
0.666667 	 0.000000 	 0.308989 	 0.000000 
0.674419 	 0.000000 	 0.308737 	 0.000000 
0.682171 	 0.000000 	 0.308462 	 0.000000 
0.689922 	 0.000000 	 0.308161 	 0.000000 
0.697674 	 0.000000 	 0.307833 	 0.000000 
0.705426 	 0.000000 	 0.307476 	 0.000000 
0.713178 	 0.000000 	 0.307088 	 0.000000 
0.720930 	 0.000000 	 0.306668 	 0.000000 
0.728682 	 0.000000 	 0.306212 	 0.000000 
0.736434 	 0.000000 	 0.305719 	 0.000000 
0.744186 	 0.000000 	 0.305184 	 0.000000 
0.751938 	 0.000000 	 0.304606 	 0.000000 
0.759690 	 0.000000 	 0.303979 	 0.000000 
0.767442 	 0.000000 	 0.303300 	 0.000000 
0.775194 	 0.000000 	 0.302563 	 0.000000 
0.782946 	 0.000000 	 0.301763 	 0.000000 
0.790698 	 0.000000 	 0.300895 	 0.000000 
0.798450 	 0.000000 	 0.299949 	 0.000000 
0.806202 	 0.000000 	 0.298917 	 0.000000 
0.813953 	 0.000000 	 0.297790 	 0.000000 
0.821705 	 0.000000 	 0.296556 	 0.000000 
0.829457 	 0.000000 	 0.295200 	 0.000000 
0.837209 	 0.000000 	 0.293706 	 0.000000 
0.844961 	 0.000000 	 0.292054 	 0.000000 
0.852713 	 0.000000 	 0.290221 	 0.000000 
0.860465 	 0.000000 	 0.288177 	 0.000000 
0.868217 	 0.000000 	 0.285888 	 0.000000 
0.875969 	 0.000000 	 0.283309 	 0.000000 
0.883721 	 0.000000 	 0.280388 	 0.000000 
0.891473 	 0.000000 	 0.277056 	 0.000000 
0.899225 	 0.000000 	 0.273226 	 0.000000 
0.906977 	 0.000000 	 0.268788 	 0.000000 
0.914729 	 0.000000 	 0.263593 	 0.000000 
0.922481 	 0.000000 	 0.257449 	 0.000000 
0.930233 	 0.000000 	 0.250089 	 0.000000 
0.937984 	 0.000000 	 0.241147 	 0.000000 
0.945736 	 0.000000 	 0.230102 	 0.000000 
0.953488 	 0.000000 	 0.216195 	 0.000000 
0.961240 	 0.000000 	 0.198309 	 0.000000 
0.968992 	 0.000000 	 0.174781 	 0.000000 
0.976744 	 0.000000 	 0.143263 	 0.000000 
0.984496 	 0.000000 	 0.101048 	 0.000000 
0.992248 	 0.000000 	 0.047952 	 0.000000 
0.000000 	 0.007752 	 0.000000 	 -0.014677 
0.007752 	 0.007752 	 0.008681 	 -0.035501 
0.015504 	 0.007752 	 0.023833 	 -0.040662 
0.023256 	 0.007752 	 0.044229 	 -0.036418 
0.031008 	 0.007752 	 0.067659 	 -0.029563 
0.038760 	 0.007752 	 0.091308 	 -0.023210 
0.046512 	 0.007752 	 0.113303 	 -0.018176 
0.054264 	 0.007752 	 0.132855 	 -0.014398 
0.062016 	 0.007752 	 0.149859 	 -0.011597 
0.069767 	 0.007752 	 0.164532 	 -0.009506 
0.077519 	 0.007752 	 0.177192 	 -0.007921 
0.085271 	 0.007752 	 0.188157 	 -0.006699 
0.093023 	 0.007752 	 0.197710 	 -0.005740 
0.100775 	 0.007752 	 0.206087 	 -0.004974 
0.108527 	 0.007752 	 0.213483 	 -0.004353 
0.116279 	 0.007752 	 0.220051 	 -0.003843 
0.124031 	 0.007752 	 0.225921 	 -0.003418 
0.131783 	 0.007752 	 0.231193 	 -0.003061 
0.139535 	 0.007752 	 0.235951 	 -0.002757 
0.147287 	 0.007752 	 0.240265 	 -0.002497 
0.155039 	 0.007752 	 0.244191 	 -0.002271 
0.162791 	 0.007752 	 0.247777 	 -0.002074 
0.170543 	 0.007752 	 0.251062 	 -0.001901 
0.178295 	 0.007752 	 0.254081 	 -0.001748 
0.186047 	 0.007752 	 0.256860 	 -0.001612 
0.193798 	 0.007752 	 0.259426 	 -0.001491 
0.201550 	 0.007752 	 0.261799 	 -0.001382 
0.209302 	 0.007752 	 0.263998 	 -0.001283 
0.217054 	 0.007752 	 0.266038 	 -0.001194 
0.224806 	 0.007752 	 0.267934 	 -0.001113 
0.232558 	 0.007752 	 0.269698 	 -0.001039 
0.240310 	 0.007752 	 0.271340 	 -0.000971 
0.248062 	 0.007752 	 0.272871 	 -0.000908 
0.255814 	 0.007752 	 0.274300 	 -0.000851 
0.263566 	 0.007752 	 0.275634 	 -0.000798 
0.271318 	 0.007752 	 0.276880 	 -0.000749 
0.279070 	 0.007752 	 0.278044 	 -0.000703 
0.286822 	 0.007752 	 0.279133 	 -0.000661 
0.294574 	 0.007752 	 0.280152 	 -0.000622 
0.302326 	 0.007752 	 0.281105 	 -0.000585 
0.310078 	 0.007752 	 0.281997 	 -0.000551 
0.317829 	 0.007752 	 0.282832 	 -0.000518 
0.325581 	 0.007752 	 0.283614 	 -0.000488 
0.333333 	 0.007752 	 0.284345 	 -0.000460 
0.341085 	 0.007752 	 0.285030 	 -0.000433 
0.348837 	 0.007752 	 0.285671 	 -0.000408 
0.356589 	 0.007752 	 0.286270 	 -0.000384 
0.364341 	 0.007752 	 0.286830 	 -0.000362 
0.372093 	 0.007752 	 0.287354 	 -0.000341 
0.379845 	 0.007752 	 0.287843 	 -0.000320 
0.387597 	 0.007752 	 0.288300 	 -0.000301 
0.395349 	 0.007752 	 0.288725 	 -0.000283 
0.403101 	 0.007752 	 0.289121 	 -0.000265 
0.410853 	 0.007752 	 0.289490 	 -0.000249 
0.418605 	 0.007752 	 0.289832 	 -0.000232 
0.426357 	 0.007752 	 0.290148 	 -0.000217 
0.434109 	 0.007752 	 0.290441 	 -0.000202 
0.441860 	 0.007752 	 0.290710 	 -0.000187 
0.449612 	 0.007752 	 0.290958 	 -0.000173 
0.457364 	 0.007752 	 0.291183 	 -0.000160 
0.465116 	 0.007752 	 0.291389 	 -0.000146 
0.472868 	 0.007752 	 0.291574 	 -0.000133 
0.480620 	 0.007752 	 0.291739 	 -0.000120 
0.488372 	 0.007752 	 0.291886 	 -0.000107 
0.496124 	 0.007752 	 0.292013 	 -0.000095 
0.503876 	 0.007752 	 0.292122 	 -0.000082 
0.511628 	 0.007752 	 0.292213 	 -0.000070 
0.519380 	 0.007752 	 0.292286 	 -0.000057 
0.527132 	 0.007752 	 0.292341 	 -0.000045 
0.534884 	 0.007752 	 0.292377 	 -0.000032 
0.542636 	 0.007752 	 0.292395 	 -0.000019 
0.550388 	 0.007752 	 0.292394 	 -0.000006 
0.558140 	 0.007752 	 0.292375 	 0.000007 
0.565891 	 0.007752 	 0.292336 	 0.000021 
0.573643 	 0.007752 	 0.292278 	 0.000035 
0.581395 	 0.007752 	 0.292199 	 0.000049 
0.589147 	 0.007752 	 0.292099 	 0.000064 
0.596899 	 0.007752 	 0.291978 	 0.000079 
0.604651 	 0.007752 	 0.291834 	 0.000095 
0.612403 	 0.007752 	 0.291666 	 0.000111 
0.620155 	 0.007752 	 0.291474 	 0.000128 
0.627907 	 0.007752 	 0.291256 	 0.000146 
0.635659 	 0.007752 	 0.291012 	 0.000165 
0.643411 	 0.007752 	 0.290738 	 0.000184 
0.651163 	 0.007752 	 0.290435 	 0.000204 
0.658915 	 0.007752 	 0.290099 	 0.000226 
0.666667 	 0.007752 	 0.289730 	 0.000249 
0.674419 	 0.007752 	 0.289325 	 0.000272 
0.682171 	 0.007752 	 0.288881 	 0.000298 
0.689922 	 0.007752 	 0.288397 	 0.000325 
0.697674 	 0.007752 	 0.287869 	 0.000354 
0.705426 	 0.007752 	 0.287294 	 0.000384 
0.713178 	 0.007752 	 0.286669 	 0.000417 
0.720930 	 0.007752 	 0.285990 	 0.000452 
0.728682 	 0.007752 	 0.285253 	 0.000490 
0.736434 	 0.007752 	 0.284452 	 0.000531 
0.744186 	 0.007752 	 0.283583 	 0.000575 
0.751938 	 0.007752 	 0.282639 	 0.000623 
0.759690 	 0.007752 	 0.281614 	 0.000675 
0.767442 	 0.007752 	 0.280500 	 0.000733 
0.775194 	 0.007752 	 0.279289 	 0.000795 
0.782946 	 0.007752 	 0.277971 	 0.000865 
0.790698 	 0.007752 	 0.276535 	 0.000942 
0.798450 	 0.007752 	 0.274968 	 0.001027 
0.806202 	 0.007752 	 0.273255 	 0.001123 
0.813953 	 0.007752 	 0.271379 	 0.001230 
0.821705 	 0.007752 	 0.269320 	 0.001352 
0.829457 	 0.007752 	 0.267055 	 0.001490 
0.837209 	 0.007752 	 0.264557 	 0.001647 
0.844961 	 0.007752 	 0.261793 	 0.001829 
0.852713 	 0.007752 	 0.258725 	 0.002039 
0.860465 	 0.007752 	 0.255307 	 0.002285 
0.868217 	 0.007752 	 0.251483 	 0.002574 
0.875969 	 0.007752 	 0.247187 	 0.002916 
0.883721 	 0.007752 	 0.242335 	 0.003327 
0.891473 	 0.007752 	 0.236826 	 0.003825 
0.899225 	 0.007752 	 0.230534 	 0.004434 
0.906977 	 0.007752 	 0.223301 	 0.005189 
0.914729 	 0.007752 	 0.214927 	 0.006140 
0.922481 	 0.007752 	 0.205160 	 0.007355 
0.930233 	 0.007752 	 0.193676 	 0.008937 
0.937984 	 0.007752 	 0.180064 	 0.011041 
0.945736 	 0.007752 	 0.163811 	 0.013901 
0.953488 	 0.007752 	 0.144301 	 0.017882 
0.961240 	 0.007752 	 0.120886 	 0.023522 
0.968992 	 0.007752 	 0.093123 	 0.031514 
0.976744 	 0.007752 	 0.061470 	 0.042209 
0.984496 	 0.007752 	 0.028901 	 0.053092 
0.992248 	 0.007752 	 0.003741 	 0.047950 
0.000000 	 0.015504 	 0.000000 	 -0.023354 
0.007752 	 0.015504 	 0.002557 	 -0.050648 
0.015504 	 0.015504 	 0.008553 	 -0.061053 
0.023256 	 0.015504 	 0.018628 	 -0.059843 
0.031008 	 0.015504 	 0.032743 	 -0.053207 
0.038760 	 0.015504 	 0.049523 	 -0.045200 
0.046512 	 0.015504 	 0.067302 	 -0.037723 
0.054264 	 0.015504 	 0.084813 	 -0.031398 
0.062016 	 0.015504 	 0.101313 	 -0.026265 
0.069767 	 0.015504 	 0.116466 	 -0.022160 
0.077519 	 0.015504 	 0.130192 	 -0.018882 
0.085271 	 0.015504 	 0.142545 	 -0.016248 
0.093023 	 0.015504 	 0.153638 	 -0.014113 
0.100775 	 0.015504 	 0.163605 	 -0.012364 
0.108527 	 0.015504 	 0.172577 	 -0.010918 
0.116279 	 0.015504 	 0.180676 	 -0.009708 
0.124031 	 0.015504 	 0.188008 	 -0.008686 
0.131783 	 0.015504 	 0.194667 	 -0.007815 
0.139535 	 0.015504 	 0.200733 	 -0.007067 
0.147287 	 0.015504 	 0.206274 	 -0.006419 
0.155039 	 0.015504 	 0.211351 	 -0.005853 
0.162791 	 0.015504 	 0.216013 	 -0.005355 
0.170543 	 0.015504 	 0.220304 	 -0.004915 
0.178295 	 0.015504 	 0.224262 	 -0.004524 
0.186047 	 0.015504 	 0.227920 	 -0.004174 
0.193798 	 0.015504 	 0.231305 	 -0.003860 
0.201550 	 0.015504 	 0.234444 	 -0.003577 
0.209302 	 0.015504 	 0.237357 	 -0.003320 
0.217054 	 0.015504 	 0.240064 	 -0.003086 
0.224806 	 0.015504 	 0.242582 	 -0.002873 
0.232558 	 0.015504 	 0.244927 	 -0.002678 
0.240310 	 0.015504 	 0.247111 	 -0.002499 
0.248062 	 0.015504 	 0.249149 	 -0.002334 
0.255814 	 0.015504 	 0.251049 	 -0.002182 
0.263566 	 0.015504 	 0.252823 	 -0.002041 
0.271318 	 0.015504 	 0.254479 	 -0.001911 
0.279070 	 0.015504 	 0.256027 	 -0.001790 
0.286822 	 0.015504 	 0.257472 	 -0.001677 
0.294574 	 0.015504 	 0.258823 	 -0.001572 
0.302326 	 0.015504 	 0.260085 	 -0.001475 
0.310078 	 0.015504 	 0.261264 	 -0.001383 
0.317829 	 0.015504 	 0.262366 	 -0.001298 
0.325581 	 0.015504 	 0.263396 	 -0.001218 
0.333333 	 0.015504 	 0.264358 	 -0.001143 
0.341085 	 0.015504 	 0.265256 	 -0.001072 
0.348837 	 0.015504 	 0.266095 	 -0.001006 
0.356589 	 0.015504 	 0.266877 	 -0.000943 
0.364341 	 0.015504 	 0.267607 	 -0.000884 
0.372093 	 0.015504 	 0.268287 	 -0.000828 
0.379845 	 0.015504 	 0.268920 	 -0.000776 
0.387597 	 0.015504 	 0.269508 	 -0.000726 
0.395349 	 0.015504 	 0.270055 	 -0.000678 
0.403101 	 0.015504 	 0.270563 	 -0.000633 
0.410853 	 0.015504 	 0.271033 	 -0.000590 
0.418605 	 0.015504 	 0.271468 	 -0.000548 
0.426357 	 0.015504 	 0.271869 	 -0.000509 
0.434109 	 0.015504 	 0.272237 	 -0.000471 
0.441860 	 0.015504 	 0.272575 	 -0.000434 
0.449612 	 0.015504 	 0.272883 	 -0.000399 
0.457364 	 0.015504 	 0.273163 	 -0.000365 
0.465116 	 0.015504 	 0.273416 	 -0.000331 
0.472868 	 0.015504 	 0.273643 	 -0.000299 
0.480620 	 0.015504 	 0.273843 	 -0.000267 
0.488372 	 0.015504 	 0.274019 	 -0.000236 
0.496124 	 0.015504 	 0.274171 	 -0.000205 
0.503876 	 0.015504 	 0.274298 	 -0.000174 
0.511628 	 0.015504 	 0.274402 	 -0.000143 
0.519380 	 0.015504 	 0.274482 	 -0.000113 
0.527132 	 0.015504 	 0.274539 	 -0.000082 
0.534884 	 0.015504 	 0.274572 	 -0.000051 
0.542636 	 0.015504 	 0.274582 	 -0.000020 
0.550388 	 0.015504 	 0.274568 	 0.000012 
0.558140 	 0.015504 	 0.274530 	 0.000044 
0.565891 	 0.015504 	 0.274466 	 0.000078 
0.573643 	 0.015504 	 0.274378 	 0.000112 
0.581395 	 0.015504 	 0.274263 	 0.000147 
0.589147 	 0.015504 	 0.274121 	 0.000183 
0.596899 	 0.015504 	 0.273951 	 0.000221 
0.604651 	 0.015504 	 0.273751 	 0.000260 
0.612403 	 0.015504 	 0.273521 	 0.000301 
0.620155 	 0.015504 	 0.273259 	 0.000343 
0.627907 	 0.015504 	 0.272964 	 0.000388 
0.635659 	 0.015504 	 0.272632 	 0.000435 
0.643411 	 0.015504 	 0.272263 	 0.000485 
0.651163 	 0.015504 	 0.271854 	 0.000537 
0.658915 	 0.015504 	 0.271403 	 0.000592 
0.666667 	 0.015504 	 0.270907 	 0.000650 
0.674419 	 0.015504 	 0.270363 	 0.000713 
0.682171 	 0.015504 	 0.269767 	 0.000779 
0.689922 	 0.015504 	 0.269117 	 0.000849 
0.697674 	 0.015504 	 0.268408 	 0.000925 
0.705426 	 0.015504 	 0.267636 	 0.001005 
0.713178 	 0.015504 	 0.266796 	 0.001092 
0.720930 	 0.015504 	 0.265882 	 0.001186 
0.728682 	 0.015504 	 0.264890 	 0.001287 
0.736434 	 0.015504 	 0.263811 	 0.001396 
0.744186 	 0.015504 	 0.262639 	 0.001514 
0.751938 	 0.015504 	 0.261366 	 0.001644 
0.759690 	 0.015504 	 0.259983 	 0.001785 
0.767442 	 0.015504 	 0.258478 	 0.001939 
0.775194 	 0.015504 	 0.256841 	 0.002109 
0.782946 	 0.015504 	 0.255058 	 0.002297 
0.790698 	 0.015504 	 0.253114 	 0.002504 
0.798450 	 0.015504 	 0.250993 	 0.002736 
0.806202 	 0.015504 	 0.248674 	 0.002994 
0.813953 	 0.015504 	 0.246134 	 0.003284 
0.821705 	 0.015504 	 0.243349 	 0.003611 
0.829457 	 0.015504 	 0.240288 	 0.003983 
0.837209 	 0.015504 	 0.236916 	 0.004406 
0.844961 	 0.015504 	 0.233191 	 0.004892 
0.852713 	 0.015504 	 0.229066 	 0.005452 
0.860465 	 0.015504 	 0.224483 	 0.006103 
0.868217 	 0.015504 	 0.219377 	 0.006865 
0.875969 	 0.015504 	 0.213665 	 0.007763 
0.883721 	 0.015504 	 0.207254 	 0.008831 
0.891473 	 0.015504 	 0.200028 	 0.010111 
0.899225 	 0.015504 	 0.191852 	 0.011662 
0.906977 	 0.015504 	 0.182562 	 0.013557 
0.914729 	 0.015504 	 0.171963 	 0.015902 
0.922481 	 0.015504 	 0.159829 	 0.018834 
0.930233 	 0.015504 	 0.145902 	 0.022543 
0.937984 	 0.015504 	 0.129909 	 0.027288 
0.945736 	 0.015504 	 0.111599 	 0.033405 
0.953488 	 0.015504 	 0.090843 	 0.041292 
0.961240 	 0.015504 	 0.067834 	 0.051279 
0.968992 	 0.015504 	 0.043481 	 0.063161 
0.976744 	 0.015504 	 0.020045 	 0.074773 
0.984496 	 0.015504 	 0.001842 	 0.078247 
0.992248 	 0.015504 	 -0.005281 	 0.051688 
0.000000 	 0.023256 	 0.000000 	 -0.025906 
0.007752 	 0.023256 	 -0.000486 	 -0.056640 
0.015504 	 0.023256 	 0.000557 	 -0.071123 
0.023256 	 0.023256 	 0.004630 	 -0.073953 
0.031008 	 0.023256 	 0.012374 	 -0.069982 
0.038760 	 0.023256 	 0.023334 	 -0.062975 
0.046512 	 0.023256 	 0.036460 	 -0.055229 
0.054264 	 0.023256 	 0.050656 	 -0.047892 
0.062016 	 0.023256 	 0.065054 	 -0.041413 
0.069767 	 0.023256 	 0.079078 	 -0.035882 
0.077519 	 0.023256 	 0.092397 	 -0.031230 
0.085271 	 0.023256 	 0.104848 	 -0.027336 
0.093023 	 0.023256 	 0.116381 	 -0.024075 
0.100775 	 0.023256 	 0.127009 	 -0.021332 
0.108527 	 0.023256 	 0.136778 	 -0.019012 
0.116279 	 0.023256 	 0.145749 	 -0.017035 
0.124031 	 0.023256 	 0.153989 	 -0.015340 
0.131783 	 0.023256 	 0.161565 	 -0.013877 
0.139535 	 0.023256 	 0.168538 	 -0.012604 
0.147287 	 0.023256 	 0.174964 	 -0.011491 
0.155039 	 0.023256 	 0.180897 	 -0.010510 
0.162791 	 0.023256 	 0.186381 	 -0.009642 
0.170543 	 0.023256 	 0.191457 	 -0.008869 
0.178295 	 0.023256 	 0.196162 	 -0.008178 
0.186047 	 0.023256 	 0.200529 	 -0.007556 
0.193798 	 0.023256 	 0.204586 	 -0.006995 
0.201550 	 0.023256 	 0.208360 	 -0.006486 
0.209302 	 0.023256 	 0.211872 	 -0.006023 
0.217054 	 0.023256 	 0.215145 	 -0.005601 
0.224806 	 0.023256 	 0.218196 	 -0.005214 
0.232558 	 0.023256 	 0.221042 	 -0.004859 
0.240310 	 0.023256 	 0.223698 	 -0.004533 
0.248062 	 0.023256 	 0.226178 	 -0.004231 
0.255814 	 0.023256 	 0.228495 	 -0.003953 
0.263566 	 0.023256 	 0.230659 	 -0.003694 
0.271318 	 0.023256 	 0.232682 	 -0.003455 
0.279070 	 0.023256 	 0.234572 	 -0.003232 
0.286822 	 0.023256 	 0.236339 	 -0.003025 
0.294574 	 0.023256 	 0.237990 	 -0.002832 
0.302326 	 0.023256 	 0.239534 	 -0.002652 
0.310078 	 0.023256 	 0.240976 	 -0.002483 
0.317829 	 0.023256 	 0.242324 	 -0.002325 
0.325581 	 0.023256 	 0.243582 	 -0.002177 
0.333333 	 0.023256 	 0.244757 	 -0.002039 
0.341085 	 0.023256 	 0.245854 	 -0.001909 
0.348837 	 0.023256 	 0.246877 	 -0.001786 
0.356589 	 0.023256 	 0.247831 	 -0.001671 
0.364341 	 0.023256 	 0.248720 	 -0.001562 
0.372093 	 0.023256 	 0.249548 	 -0.001460 
0.379845 	 0.023256 	 0.250317 	 -0.001363 
0.387597 	 0.023256 	 0.251032 	 -0.001272 
0.395349 	 0.023256 	 0.251695 	 -0.001185 
0.403101 	 0.023256 	 0.252310 	 -0.001102 
0.410853 	 0.023256 	 0.252878 	 -0.001024 
0.418605 	 0.023256 	 0.253402 	 -0.000949 
0.426357 	 0.023256 	 0.253885 	 -0.000877 
0.434109 	 0.023256 	 0.254328 	 -0.000808 
0.441860 	 0.023256 	 0.254733 	 -0.000743 
0.449612 	 0.023256 	 0.255102 	 -0.000679 
0.457364 	 0.023256 	 0.255436 	 -0.000618 
0.465116 	 0.023256 	 0.255737 	 -0.000558 
0.472868 	 0.023256 	 0.256005 	 -0.000500 
0.480620 	 0.023256 	 0.256242 	 -0.000443 
0.488372 	 0.023256 	 0.256448 	 -0.000388 
0.496124 	 0.023256 	 0.256625 	 -0.000333 
0.503876 	 0.023256 	 0.256773 	 -0.000278 
0.511628 	 0.023256 	 0.256892 	 -0.000225 
0.519380 	 0.023256 	 0.256982 	 -0.000171 
0.527132 	 0.023256 	 0.257044 	 -0.000117 
0.534884 	 0.023256 	 0.257077 	 -0.000062 
0.542636 	 0.023256 	 0.257082 	 -0.000007 
0.550388 	 0.023256 	 0.257058 	 0.000049 
0.558140 	 0.023256 	 0.257005 	 0.000106 
0.565891 	 0.023256 	 0.256922 	 0.000165 
0.573643 	 0.023256 	 0.256808 	 0.000225 
0.581395 	 0.023256 	 0.256662 	 0.000287 
0.589147 	 0.023256 	 0.256483 	 0.000351 
0.596899 	 0.023256 	 0.256270 	 0.000418 
0.604651 	 0.023256 	 0.256022 	 0.000488 
0.612403 	 0.023256 	 0.255737 	 0.000560 
0.620155 	 0.023256 	 0.255412 	 0.000637 
0.627907 	 0.023256 	 0.255047 	 0.000717 
0.635659 	 0.023256 	 0.254638 	 0.000801 
0.643411 	 0.023256 	 0.254183 	 0.000891 
0.651163 	 0.023256 	 0.253680 	 0.000985 
0.658915 	 0.023256 	 0.253125 	 0.001085 
0.666667 	 0.023256 	 0.252514 	 0.001191 
0.674419 	 0.023256 	 0.251845 	 0.001305 
0.682171 	 0.023256 	 0.251113 	 0.001425 
0.689922 	 0.023256 	 0.250313 	 0.001555 
0.697674 	 0.023256 	 0.249441 	 0.001693 
0.705426 	 0.023256 	 0.248491 	 0.001842 
0.713178 	 0.023256 	 0.247458 	 0.002002 
0.720930 	 0.023256 	 0.246334 	 0.002174 
0.728682 	 0.023256 	 0.245112 	 0.002361 
0.736434 	 0.023256 	 0.243784 	 0.002563 
0.744186 	 0.023256 	 0.242342 	 0.002783 
0.751938 	 0.023256 	 0.240774 	 0.003023 
0.759690 	 0.023256 	 0.239070 	 0.003285 
0.767442 	 0.023256 	 0.237218 	 0.003572 
0.775194 	 0.023256 	 0.235202 	 0.003887 
0.782946 	 0.023256 	 0.233008 	 0.004236 
0.790698 	 0.023256 	 0.230617 	 0.004621 
0.798450 	 0.023256 	 0.228009 	 0.005050 
0.806202 	 0.023256 	 0.225161 	 0.005528 
0.813953 	 0.023256 	 0.222047 	 0.006064 
0.821705 	 0.023256 	 0.218636 	 0.006668 
0.829457 	 0.023256 	 0.214893 	 0.007350 
0.837209 	 0.023256 	 0.210781 	 0.008126 
0.844961 	 0.023256 	 0.206252 	 0.009012 
0.852713 	 0.023256 	 0.201254 	 0.010029 
0.860465 	 0.023256 	 0.195726 	 0.011205 
0.868217 	 0.023256 	 0.189597 	 0.012571 
0.875969 	 0.023256 	 0.182787 	 0.014169 
0.883721 	 0.023256 	 0.175201 	 0.016051 
0.891473 	 0.023256 	 0.166733 	 0.018282 
0.899225 	 0.023256 	 0.157260 	 0.020947 
0.906977 	 0.023256 	 0.146649 	 0.024151 
0.914729 	 0.023256 	 0.134756 	 0.028030 
0.922481 	 0.023256 	 0.121440 	 0.032755 
0.930233 	 0.023256 	 0.106581 	 0.038531 
0.937984 	 0.023256 	 0.090125 	 0.045593 
0.945736 	 0.023256 	 0.072154 	 0.054156 
0.953488 	 0.023256 	 0.053019 	 0.064295 
0.961240 	 0.023256 	 0.033540 	 0.075627 
0.968992 	 0.023256 	 0.015268 	 0.086591 
0.976744 	 0.023256 	 0.000692 	 0.092972 
0.984496 	 0.023256 	 -0.007043 	 0.085364 
0.992248 	 0.023256 	 -0.005945 	 0.046404 
0.000000 	 0.031008 	 0.000000 	 -0.025416 
0.007752 	 0.031008 	 -0.001640 	 -0.057678 
0.015504 	 0.031008 	 -0.003182 	 -0.075191 
0.023256 	 0.031008 	 -0.002705 	 -0.081692 
0.031008 	 0.031008 	 0.000746 	 -0.080937 
0.038760 	 0.031008 	 0.007236 	 -0.076096 
0.046512 	 0.031008 	 0.016231 	 -0.069420 
0.054264 	 0.031008 	 0.026959 	 -0.062286 
0.062016 	 0.031008 	 0.038670 	 -0.055433 
0.069767 	 0.031008 	 0.050755 	 -0.049195 
0.077519 	 0.031008 	 0.062778 	 -0.043676 
0.085271 	 0.031008 	 0.074456 	 -0.038865 
0.093023 	 0.031008 	 0.085616 	 -0.034698 
0.100775 	 0.031008 	 0.096172 	 -0.031096 
0.108527 	 0.031008 	 0.106086 	 -0.027978 
0.116279 	 0.031008 	 0.115359 	 -0.025271 
0.124031 	 0.031008 	 0.124009 	 -0.022912 
0.131783 	 0.031008 	 0.132067 	 -0.020845 
0.139535 	 0.031008 	 0.139567 	 -0.019027 
0.147287 	 0.031008 	 0.146547 	 -0.017419 
0.155039 	 0.031008 	 0.153045 	 -0.015990 
0.162791 	 0.031008 	 0.159096 	 -0.014715 
0.170543 	 0.031008 	 0.164733 	 -0.013571 
0.178295 	 0.031008 	 0.169987 	 -0.012541 
0.186047 	 0.031008 	 0.174889 	 -0.011609 
0.193798 	 0.031008 	 0.179462 	 -0.010764 
0.201550 	 0.031008 	 0.183733 	 -0.009995 
0.209302 	 0.031008 	 0.187722 	 -0.009292 
0.217054 	 0.031008 	 0.191450 	 -0.008648 
0.224806 	 0.031008 	 0.194936 	 -0.008057 
0.232558 	 0.031008 	 0.198196 	 -0.007512 
0.240310 	 0.031008 	 0.201245 	 -0.007010 
0.248062 	 0.031008 	 0.204097 	 -0.006545 
0.255814 	 0.031008 	 0.206767 	 -0.006114 
0.263566 	 0.031008 	 0.209265 	 -0.005714 
0.271318 	 0.031008 	 0.211603 	 -0.005342 
0.279070 	 0.031008 	 0.213790 	 -0.004996 
0.286822 	 0.031008 	 0.215837 	 -0.004674 
0.294574 	 0.031008 	 0.217752 	 -0.004373 
0.302326 	 0.031008 	 0.219544 	 -0.004091 
0.310078 	 0.031008 	 0.221219 	 -0.003828 
0.317829 	 0.031008 	 0.222785 	 -0.003582 
0.325581 	 0.031008 	 0.224248 	 -0.003351 
0.333333 	 0.031008 	 0.225615 	 -0.003134 
0.341085 	 0.031008 	 0.226891 	 -0.002930 
0.348837 	 0.031008 	 0.228082 	 -0.002739 
0.356589 	 0.031008 	 0.229192 	 -0.002558 
0.364341 	 0.031008 	 0.230227 	 -0.002388 
0.372093 	 0.031008 	 0.231189 	 -0.002228 
0.379845 	 0.031008 	 0.232085 	 -0.002077 
0.387597 	 0.031008 	 0.232916 	 -0.001934 
0.395349 	 0.031008 	 0.233687 	 -0.001798 
0.403101 	 0.031008 	 0.234401 	 -0.001669 
0.410853 	 0.031008 	 0.235061 	 -0.001547 
0.418605 	 0.031008 	 0.235670 	 -0.001431 
0.426357 	 0.031008 	 0.236230 	 -0.001320 
0.434109 	 0.031008 	 0.236743 	 -0.001213 
0.441860 	 0.031008 	 0.237212 	 -0.001111 
0.449612 	 0.031008 	 0.237638 	 -0.001013 
0.457364 	 0.031008 	 0.238024 	 -0.000918 
0.465116 	 0.031008 	 0.238371 	 -0.000826 
0.472868 	 0.031008 	 0.238680 	 -0.000737 
0.480620 	 0.031008 	 0.238953 	 -0.000650 
0.488372 	 0.031008 	 0.239190 	 -0.000565 
0.496124 	 0.031008 	 0.239392 	 -0.000481 
0.503876 	 0.031008 	 0.239560 	 -0.000398 
0.511628 	 0.031008 	 0.239695 	 -0.000316 
0.519380 	 0.031008 	 0.239797 	 -0.000234 
0.527132 	 0.031008 	 0.239866 	 -0.000151 
0.534884 	 0.031008 	 0.239901 	 -0.000068 
0.542636 	 0.031008 	 0.239904 	 0.000016 
0.550388 	 0.031008 	 0.239873 	 0.000101 
0.558140 	 0.031008 	 0.239808 	 0.000188 
0.565891 	 0.031008 	 0.239708 	 0.000277 
0.573643 	 0.031008 	 0.239572 	 0.000369 
0.581395 	 0.031008 	 0.239400 	 0.000463 
0.589147 	 0.031008 	 0.239190 	 0.000562 
0.596899 	 0.031008 	 0.238940 	 0.000664 
0.604651 	 0.031008 	 0.238649 	 0.000771 
0.612403 	 0.031008 	 0.238314 	 0.000882 
0.620155 	 0.031008 	 0.237935 	 0.001000 
0.627907 	 0.031008 	 0.237507 	 0.001123 
0.635659 	 0.031008 	 0.237030 	 0.001253 
0.643411 	 0.031008 	 0.236498 	 0.001391 
0.651163 	 0.031008 	 0.235910 	 0.001537 
0.658915 	 0.031008 	 0.235262 	 0.001692 
0.666667 	 0.031008 	 0.234550 	 0.001857 
0.674419 	 0.031008 	 0.233769 	 0.002033 
0.682171 	 0.031008 	 0.232914 	 0.002222 
0.689922 	 0.031008 	 0.231981 	 0.002423 
0.697674 	 0.031008 	 0.230964 	 0.002639 
0.705426 	 0.031008 	 0.229855 	 0.002872 
0.713178 	 0.031008 	 0.228649 	 0.003122 
0.720930 	 0.031008 	 0.227338 	 0.003392 
0.728682 	 0.031008 	 0.225912 	 0.003685 
0.736434 	 0.031008 	 0.224364 	 0.004002 
0.744186 	 0.031008 	 0.222681 	 0.004347 
0.751938 	 0.031008 	 0.220854 	 0.004722 
0.759690 	 0.031008 	 0.218868 	 0.005133 
0.767442 	 0.031008 	 0.216711 	 0.005583 
0.775194 	 0.031008 	 0.214365 	 0.006077 
0.782946 	 0.031008 	 0.211813 	 0.006622 
0.790698 	 0.031008 	 0.209036 	 0.007225 
0.798450 	 0.031008 	 0.206010 	 0.007893 
0.806202 	 0.031008 	 0.202711 	 0.008638 
0.813953 	 0.031008 	 0.199110 	 0.009471 
0.821705 	 0.031008 	 0.195175 	 0.010405 
0.829457 	 0.031008 	 0.190870 	 0.011458 
0.837209 	 0.031008 	 0.186154 	 0.012650 
0.844961 	 0.031008 	 0.180980 	 0.014005 
0.852713 	 0.031008 	 0.175296 	 0.015552 
0.860465 	 0.031008 	 0.169044 	 0.017328 
0.868217 	 0.031008 	 0.162157 	 0.019376 
0.875969 	 0.031008 	 0.154563 	 0.021750 
0.883721 	 0.031008 	 0.146182 	 0.024514 
0.891473 	 0.031008 	 0.136929 	 0.027750 
0.899225 	 0.031008 	 0.126717 	 0.031553 
0.906977 	 0.031008 	 0.115464 	 0.036038 
0.914729 	 0.031008 	 0.103102 	 0.041341 
0.922481 	 0.031008 	 0.089602 	 0.047608 
0.930233 	 0.031008 	 0.074999 	 0.054982 
0.937984 	 0.031008 	 0.059451 	 0.063558 
0.945736 	 0.031008 	 0.043309 	 0.073285 
0.953488 	 0.031008 	 0.027228 	 0.083769 
0.961240 	 0.031008 	 0.012280 	 0.093894 
0.968992 	 0.031008 	 0.000020 	 0.101161 
0.976744 	 0.031008 	 -0.007654 	 0.100702 
0.984496 	 0.031008 	 -0.009186 	 0.084260 
0.992248 	 0.031008 	 -0.004990 	 0.040457 
0.000000 	 0.038760 	 0.000000 	 -0.023771 
0.007752 	 0.038760 	 -0.001926 	 -0.056132 
0.015504 	 0.038760 	 -0.004663 	 -0.075664 
0.023256 	 0.038760 	 -0.006260 	 -0.085138 
0.031008 	 0.038760 	 -0.005627 	 -0.087422 
0.038760 	 0.038760 	 -0.002397 	 -0.085087 
0.046512 	 0.038760 	 0.003258 	 -0.080143 
0.054264 	 0.038760 	 0.010870 	 -0.073991 
0.062016 	 0.038760 	 0.019877 	 -0.067513 
0.069767 	 0.038760 	 0.029749 	 -0.061214 
0.077519 	 0.038760 	 0.040049 	 -0.055349 
0.085271 	 0.038760 	 0.050444 	 -0.050021 
0.093023 	 0.038760 	 0.060701 	 -0.045249 
0.100775 	 0.038760 	 0.070663 	 -0.041006 
0.108527 	 0.038760 	 0.080231 	 -0.037247 
0.116279 	 0.038760 	 0.089351 	 -0.033917 
0.124031 	 0.038760 	 0.097997 	 -0.030965 
0.131783 	 0.038760 	 0.106162 	 -0.028341 
0.139535 	 0.038760 	 0.113855 	 -0.026003 
0.147287 	 0.038760 	 0.121089 	 -0.023912 
0.155039 	 0.038760 	 0.127884 	 -0.022037 
0.162791 	 0.038760 	 0.134262 	 -0.020348 
0.170543 	 0.038760 	 0.140245 	 -0.018821 
0.178295 	 0.038760 	 0.145858 	 -0.017438 
0.186047 	 0.038760 	 0.151122 	 -0.016179 
0.193798 	 0.038760 	 0.156058 	 -0.015031 
0.201550 	 0.038760 	 0.160687 	 -0.013981 