VARIABLES ="X", "Y", "Omega"
ZONE T = "BLOCK1", I = 129, J = 129, F = POINT

0.000000 	 0.000000 	 -2.371688 
0.007752 	 0.000000 	 -3.978590 
0.015504 	 0.000000 	 -6.773088 
0.023256 	 0.000000 	 -10.285108 
0.031008 	 0.000000 	 -13.863567 
0.038760 	 0.000000 	 -17.096504 
0.046512 	 0.000000 	 -19.854421 
0.054264 	 0.000000 	 -22.156177 
0.062016 	 0.000000 	 -24.070807 
0.069767 	 0.000000 	 -25.672348 
0.077519 	 0.000000 	 -27.024558 
0.085271 	 0.000000 	 -28.178219 
0.093023 	 0.000000 	 -29.172634 
0.100775 	 0.000000 	 -30.038017 
0.108527 	 0.000000 	 -30.797672 
0.116279 	 0.000000 	 -31.469722 
0.124031 	 0.000000 	 -32.068401 
0.131783 	 0.000000 	 -32.605011 
0.139535 	 0.000000 	 -33.088619 
0.147287 	 0.000000 	 -33.526576 
0.155039 	 0.000000 	 -33.924900 
0.162791 	 0.000000 	 -34.288563 
0.170543 	 0.000000 	 -34.621708 
0.178295 	 0.000000 	 -34.927819 
0.186047 	 0.000000 	 -35.209843 
0.193798 	 0.000000 	 -35.470299 
0.201550 	 0.000000 	 -35.711345 
0.209302 	 0.000000 	 -35.934853 
0.217054 	 0.000000 	 -36.142446 
0.224806 	 0.000000 	 -36.335549 
0.232558 	 0.000000 	 -36.515411 
0.240310 	 0.000000 	 -36.683140 
0.248062 	 0.000000 	 -36.839719 
0.255814 	 0.000000 	 -36.986024 
0.263566 	 0.000000 	 -37.122843 
0.271318 	 0.000000 	 -37.250881 
0.279070 	 0.000000 	 -37.370777 
0.286822 	 0.000000 	 -37.483108 
0.294574 	 0.000000 	 -37.588399 
0.302326 	 0.000000 	 -37.687129 
0.310078 	 0.000000 	 -37.779731 
0.317829 	 0.000000 	 -37.866605 
0.325581 	 0.000000 	 -37.948115 
0.333333 	 0.000000 	 -38.024596 
0.341085 	 0.000000 	 -38.096356 
0.348837 	 0.000000 	 -38.163675 
0.356589 	 0.000000 	 -38.226815 
0.364341 	 0.000000 	 -38.286013 
0.372093 	 0.000000 	 -38.341488 
0.379845 	 0.000000 	 -38.393443 
0.387597 	 0.000000 	 -38.442062 
0.395349 	 0.000000 	 -38.487515 
0.403101 	 0.000000 	 -38.529956 
0.410853 	 0.000000 	 -38.569528 
0.418605 	 0.000000 	 -38.606360 
0.426357 	 0.000000 	 -38.640569 
0.434109 	 0.000000 	 -38.672259 
0.441860 	 0.000000 	 -38.701527 
0.449612 	 0.000000 	 -38.728456 
0.457364 	 0.000000 	 -38.753120 
0.465116 	 0.000000 	 -38.775585 
0.472868 	 0.000000 	 -38.795906 
0.480620 	 0.000000 	 -38.814130 
0.488372 	 0.000000 	 -38.830294 
0.496124 	 0.000000 	 -38.844428 
0.503876 	 0.000000 	 -38.856553 
0.511628 	 0.000000 	 -38.866682 
0.519380 	 0.000000 	 -38.874819 
0.527132 	 0.000000 	 -38.880962 
0.534884 	 0.000000 	 -38.885098 
0.542636 	 0.000000 	 -38.887207 
0.550388 	 0.000000 	 -38.887263 
0.558140 	 0.000000 	 -38.885229 
0.565891 	 0.000000 	 -38.881060 
0.573643 	 0.000000 	 -38.874703 
0.581395 	 0.000000 	 -38.866095 
0.589147 	 0.000000 	 -38.855166 
0.596899 	 0.000000 	 -38.841833 
0.604651 	 0.000000 	 -38.826005 
0.612403 	 0.000000 	 -38.807581 
0.620155 	 0.000000 	 -38.786446 
0.627907 	 0.000000 	 -38.762475 
0.635659 	 0.000000 	 -38.735528 
0.643411 	 0.000000 	 -38.705453 
0.651163 	 0.000000 	 -38.672081 
0.658915 	 0.000000 	 -38.635227 
0.666667 	 0.000000 	 -38.594687 
0.674419 	 0.000000 	 -38.550236 
0.682171 	 0.000000 	 -38.501627 
0.689922 	 0.000000 	 -38.448589 
0.697674 	 0.000000 	 -38.390820 
0.705426 	 0.000000 	 -38.327988 
0.713178 	 0.000000 	 -38.259724 
0.720930 	 0.000000 	 -38.185617 
0.728682 	 0.000000 	 -38.105211 
0.736434 	 0.000000 	 -38.017995 
0.744186 	 0.000000 	 -37.923396 
0.751938 	 0.000000 	 -37.820767 
0.759690 	 0.000000 	 -37.709383 
0.767442 	 0.000000 	 -37.588416 
0.775194 	 0.000000 	 -37.456926 
0.782946 	 0.000000 	 -37.313840 
0.790698 	 0.000000 	 -37.157924 
0.798450 	 0.000000 	 -36.987756 
0.806202 	 0.000000 	 -36.801685 
0.813953 	 0.000000 	 -36.597791 
0.821705 	 0.000000 	 -36.373825 
0.829457 	 0.000000 	 -36.127135 
0.837209 	 0.000000 	 -35.854582 
0.844961 	 0.000000 	 -35.552419 
0.852713 	 0.000000 	 -35.216149 
0.860465 	 0.000000 	 -34.840331 
0.868217 	 0.000000 	 -34.418333 
0.875969 	 0.000000 	 -33.941998 
0.883721 	 0.000000 	 -33.401206 
0.891473 	 0.000000 	 -32.783270 
0.899225 	 0.000000 	 -32.072115 
0.906977 	 0.000000 	 -31.247135 
0.914729 	 0.000000 	 -30.281589 
0.922481 	 0.000000 	 -29.140328 
0.930233 	 0.000000 	 -27.776596 
0.937984 	 0.000000 	 -26.127624 
0.945736 	 0.000000 	 -24.109051 
0.953488 	 0.000000 	 -21.609746 
0.961240 	 0.000000 	 -18.494298 
0.968992 	 0.000000 	 -14.639901 
0.976744 	 0.000000 	 -10.097624 
0.984496 	 0.000000 	 -5.672827 
0.992248 	 0.000000 	 -4.925657 
0.000000 	 0.007752 	 -3.613821 
0.007752 	 0.007752 	 -0.320117 
0.015504 	 0.007752 	 3.345824 
0.023256 	 0.007752 	 5.988858 
0.031008 	 0.007752 	 7.407958 
0.038760 	 0.007752 	 7.964056 
0.046512 	 0.007752 	 8.023595 
0.054264 	 0.007752 	 7.829950 
0.062016 	 0.007752 	 7.521773 
0.069767 	 0.007752 	 7.172233 
0.077519 	 0.007752 	 6.818040 
0.085271 	 0.007752 	 6.476646 
0.093023 	 0.007752 	 6.155609 
0.100775 	 0.007752 	 5.857496 
0.108527 	 0.007752 	 5.582417 
0.116279 	 0.007752 	 5.329327 
0.124031 	 0.007752 	 5.096696 
0.131783 	 0.007752 	 4.882847 
0.139535 	 0.007752 	 4.686125 
0.147287 	 0.007752 	 4.504973 
0.155039 	 0.007752 	 4.337966 
0.162791 	 0.007752 	 4.183818 
0.170543 	 0.007752 	 4.041375 
0.178295 	 0.007752 	 3.909607 
0.186047 	 0.007752 	 3.787594 
0.193798 	 0.007752 	 3.674517 
0.201550 	 0.007752 	 3.569640 
0.209302 	 0.007752 	 3.472308 
0.217054 	 0.007752 	 3.381928 
0.224806 	 0.007752 	 3.297969 
0.232558 	 0.007752 	 3.219950 
0.240310 	 0.007752 	 3.147435 
0.248062 	 0.007752 	 3.080026 
0.255814 	 0.007752 	 3.017362 
0.263566 	 0.007752 	 2.959111 
0.271318 	 0.007752 	 2.904971 
0.279070 	 0.007752 	 2.854663 
0.286822 	 0.007752 	 2.807928 
0.294574 	 0.007752 	 2.764530 
0.302326 	 0.007752 	 2.724249 
0.310078 	 0.007752 	 2.686880 
0.317829 	 0.007752 	 2.652235 
0.325581 	 0.007752 	 2.620139 
0.333333 	 0.007752 	 2.590427 
0.341085 	 0.007752 	 2.562947 
0.348837 	 0.007752 	 2.537557 
0.356589 	 0.007752 	 2.514126 
0.364341 	 0.007752 	 2.492530 
0.372093 	 0.007752 	 2.472654 
0.379845 	 0.007752 	 2.454392 
0.387597 	 0.007752 	 2.437645 
0.395349 	 0.007752 	 2.422319 
0.403101 	 0.007752 	 2.408330 
0.410853 	 0.007752 	 2.395599 
0.418605 	 0.007752 	 2.384051 
0.426357 	 0.007752 	 2.373620 
0.434109 	 0.007752 	 2.364245 
0.441860 	 0.007752 	 2.355869 
0.449612 	 0.007752 	 2.348440 
0.457364 	 0.007752 	 2.341914 
0.465116 	 0.007752 	 2.336249 
0.472868 	 0.007752 	 2.331409 
0.480620 	 0.007752 	 2.327363 
0.488372 	 0.007752 	 2.324085 
0.496124 	 0.007752 	 2.321552 
0.503876 	 0.007752 	 2.319747 
0.511628 	 0.007752 	 2.318658 
0.519380 	 0.007752 	 2.318276 
0.527132 	 0.007752 	 2.318598 
0.534884 	 0.007752 	 2.319626 
0.542636 	 0.007752 	 2.321365 
0.550388 	 0.007752 	 2.323826 
0.558140 	 0.007752 	 2.327024 
0.565891 	 0.007752 	 2.330980 
0.573643 	 0.007752 	 2.335720 
0.581395 	 0.007752 	 2.341274 
0.589147 	 0.007752 	 2.347680 
0.596899 	 0.007752 	 2.354979 
0.604651 	 0.007752 	 2.363219 
0.612403 	 0.007752 	 2.372456 
0.620155 	 0.007752 	 2.382751 
0.627907 	 0.007752 	 2.394171 
0.635659 	 0.007752 	 2.406794 
0.643411 	 0.007752 	 2.420703 
0.651163 	 0.007752 	 2.435992 
0.658915 	 0.007752 	 2.452763 
0.666667 	 0.007752 	 2.471130 
0.674419 	 0.007752 	 2.491218 
0.682171 	 0.007752 	 2.513163 
0.689922 	 0.007752 	 2.537117 
0.697674 	 0.007752 	 2.563246 
0.705426 	 0.007752 	 2.591736 
0.713178 	 0.007752 	 2.622788 
0.720930 	 0.007752 	 2.656628 
0.728682 	 0.007752 	 2.693506 
0.736434 	 0.007752 	 2.733699 
0.744186 	 0.007752 	 2.777516 
0.751938 	 0.007752 	 2.825302 
0.759690 	 0.007752 	 2.877444 
0.767442 	 0.007752 	 2.934377 
0.775194 	 0.007752 	 2.996589 
0.782946 	 0.007752 	 3.064635 
0.790698 	 0.007752 	 3.139141 
0.798450 	 0.007752 	 3.220822 
0.806202 	 0.007752 	 3.310494 
0.813953 	 0.007752 	 3.409092 
0.821705 	 0.007752 	 3.517692 
0.829457 	 0.007752 	 3.637536 
0.837209 	 0.007752 	 3.770062 
0.844961 	 0.007752 	 3.916943 
0.852713 	 0.007752 	 4.080128 
0.860465 	 0.007752 	 4.261897 
0.868217 	 0.007752 	 4.464916 
0.875969 	 0.007752 	 4.692311 
0.883721 	 0.007752 	 4.947732 
0.891473 	 0.007752 	 5.235420 
0.899225 	 0.007752 	 5.560239 
0.906977 	 0.007752 	 5.927621 
0.914729 	 0.007752 	 6.343315 
0.922481 	 0.007752 	 6.812687 
0.930233 	 0.007752 	 7.339008 
0.937984 	 0.007752 	 7.919530 
0.945736 	 0.007752 	 8.536544 
0.953488 	 0.007752 	 9.137110 
0.961240 	 0.007752 	 9.587148 
0.968992 	 0.007752 	 9.568568 
0.976744 	 0.007752 	 8.355592 
0.984496 	 0.007752 	 4.356802 
0.992248 	 0.007752 	 -5.732195 
0.000000 	 0.015504 	 -4.753031 
0.007752 	 0.015504 	 -1.627682 
0.015504 	 0.015504 	 1.172833 
0.023256 	 0.015504 	 3.349824 
0.031008 	 0.015504 	 4.801435 
0.038760 	 0.015504 	 5.645502 
0.046512 	 0.015504 	 6.060622 
0.054264 	 0.015504 	 6.200976 
0.062016 	 0.015504 	 6.176131 
0.069767 	 0.015504 	 6.057073 
0.077519 	 0.015504 	 5.887617 
0.085271 	 0.015504 	 5.694083 
0.093023 	 0.015504 	 5.491998 
0.100775 	 0.015504 	 5.290362 
0.108527 	 0.015504 	 5.094254 
0.116279 	 0.015504 	 4.906413 
0.124031 	 0.015504 	 4.728174 
0.131783 	 0.015504 	 4.560044 
0.139535 	 0.015504 	 4.402039 
0.147287 	 0.015504 	 4.253898 
0.155039 	 0.015504 	 4.115206 
0.162791 	 0.015504 	 3.985473 
0.170543 	 0.015504 	 3.864178 
0.178295 	 0.015504 	 3.750801 
0.186047 	 0.015504 	 3.644836 
0.193798 	 0.015504 	 3.545801 
0.201550 	 0.015504 	 3.453241 
0.209302 	 0.015504 	 3.366731 
0.217054 	 0.015504 	 3.285875 
0.224806 	 0.015504 	 3.210303 
0.232558 	 0.015504 	 3.139676 
0.240310 	 0.015504 	 3.073675 
0.248062 	 0.015504 	 3.012007 
0.255814 	 0.015504 	 2.954399 
0.263566 	 0.015504 	 2.900597 
0.271318 	 0.015504 	 2.850366 
0.279070 	 0.015504 	 2.803485 
0.286822 	 0.015504 	 2.759749 
0.294574 	 0.015504 	 2.718967 
0.302326 	 0.015504 	 2.680961 
0.310078 	 0.015504 	 2.645562 
0.317829 	 0.015504 	 2.612615 
0.325581 	 0.015504 	 2.581973 
0.333333 	 0.015504 	 2.553499 
0.341085 	 0.015504 	 2.527062 
0.348837 	 0.015504 	 2.502544 
0.356589 	 0.015504 	 2.479830 
0.364341 	 0.015504 	 2.458814 
0.372093 	 0.015504 	 2.439397 
0.379845 	 0.015504 	 2.421486 
0.387597 	 0.015504 	 2.404993 
0.395349 	 0.015504 	 2.389838 
0.403101 	 0.015504 	 2.375944 
0.410853 	 0.015504 	 2.363241 
0.418605 	 0.015504 	 2.351664 
0.426357 	 0.015504 	 2.341152 
0.434109 	 0.015504 	 2.331650 
0.441860 	 0.015504 	 2.323107 
0.449612 	 0.015504 	 2.315476 
0.457364 	 0.015504 	 2.308716 
0.465116 	 0.015504 	 2.302788 
0.472868 	 0.015504 	 2.297660 
0.480620 	 0.015504 	 2.293301 
0.488372 	 0.015504 	 2.289688 
0.496124 	 0.015504 	 2.286799 
0.503876 	 0.015504 	 2.284618 
0.511628 	 0.015504 	 2.283132 
0.519380 	 0.015504 	 2.282332 
0.527132 	 0.015504 	 2.282216 
0.534884 	 0.015504 	 2.282782 
0.542636 	 0.015504 	 2.284035 
0.550388 	 0.015504 	 2.285984 
0.558140 	 0.015504 	 2.288643 
0.565891 	 0.015504 	 2.292028 
0.573643 	 0.015504 	 2.296162 
0.581395 	 0.015504 	 2.301074 
0.589147 	 0.015504 	 2.306795 
0.596899 	 0.015504 	 2.313363 
0.604651 	 0.015504 	 2.320822 
0.612403 	 0.015504 	 2.329221 
0.620155 	 0.015504 	 2.338616 
0.627907 	 0.015504 	 2.349069 
0.635659 	 0.015504 	 2.360650 
0.643411 	 0.015504 	 2.373434 
0.651163 	 0.015504 	 2.387507 
0.658915 	 0.015504 	 2.402963 
0.666667 	 0.015504 	 2.419906 
0.674419 	 0.015504 	 2.438449 
0.682171 	 0.015504 	 2.458717 
0.689922 	 0.015504 	 2.480850 
0.697674 	 0.015504 	 2.504999 
0.705426 	 0.015504 	 2.531333 
0.713178 	 0.015504 	 2.560035 
0.720930 	 0.015504 	 2.591311 
0.728682 	 0.015504 	 2.625387 
0.736434 	 0.015504 	 2.662513 
0.744186 	 0.015504 	 2.702968 
0.751938 	 0.015504 	 2.747060 
0.759690 	 0.015504 	 2.795136 
0.767442 	 0.015504 	 2.847579 
0.775194 	 0.015504 	 2.904820 
0.782946 	 0.015504 	 2.967343 
0.790698 	 0.015504 	 3.035690 
0.798450 	 0.015504 	 3.110471 
0.806202 	 0.015504 	 3.192376 
0.813953 	 0.015504 	 3.282181 
0.821705 	 0.015504 	 3.380766 
0.829457 	 0.015504 	 3.489122 
0.837209 	 0.015504 	 3.608370 
0.844961 	 0.015504 	 3.739773 
0.852713 	 0.015504 	 3.884746 
0.860465 	 0.015504 	 4.044865 
0.868217 	 0.015504 	 4.221857 
0.875969 	 0.015504 	 4.417577 
0.883721 	 0.015504 	 4.633938 
0.891473 	 0.015504 	 4.872767 
0.899225 	 0.015504 	 5.135520 
0.906977 	 0.015504 	 5.422755 
0.914729 	 0.015504 	 5.733142 
0.922481 	 0.015504 	 6.061624 
0.930233 	 0.015504 	 6.396013 
0.937984 	 0.015504 	 6.710637 
0.945736 	 0.015504 	 6.954517 
0.953488 	 0.015504 	 7.029609 
0.961240 	 0.015504 	 6.752023 
0.968992 	 0.015504 	 5.787971 
0.976744 	 0.015504 	 3.566254 
0.984496 	 0.015504 	 -0.774755 
0.992248 	 0.015504 	 -8.127564 
0.000000 	 0.023256 	 -5.206527 
0.007752 	 0.023256 	 -2.549680 
0.015504 	 0.023256 	 -0.266373 
0.023256 	 0.023256 	 1.571403 
0.031008 	 0.023256 	 2.930199 
0.038760 	 0.023256 	 3.858027 
0.046512 	 0.023256 	 4.444657 
0.054264 	 0.023256 	 4.782662 
0.062016 	 0.023256 	 4.948947 
0.069767 	 0.023256 	 5.000854 
0.077519 	 0.023256 	 4.978682 
0.085271 	 0.023256 	 4.909831 
0.093023 	 0.023256 	 4.812599 
0.100775 	 0.023256 	 4.699078 
0.108527 	 0.023256 	 4.577216 
0.116279 	 0.023256 	 4.452201 
0.124031 	 0.023256 	 4.327400 
0.131783 	 0.023256 	 4.204963 
0.139535 	 0.023256 	 4.086237 
0.147287 	 0.023256 	 3.972029 
0.155039 	 0.023256 	 3.862789 
0.162791 	 0.023256 	 3.758727 
0.170543 	 0.023256 	 3.659894 
0.178295 	 0.023256 	 3.566239 
0.186047 	 0.023256 	 3.477641 
0.193798 	 0.023256 	 3.393940 
0.201550 	 0.023256 	 3.314949 
0.209302 	 0.023256 	 3.240467 
0.217054 	 0.023256 	 3.170291 
0.224806 	 0.023256 	 3.104214 
0.232558 	 0.023256 	 3.042035 
0.240310 	 0.023256 	 2.983555 
0.248062 	 0.023256 	 2.928586 
0.255814 	 0.023256 	 2.876944 
0.263566 	 0.023256 	 2.828455 
0.271318 	 0.023256 	 2.782952 
0.279070 	 0.023256 	 2.740277 
0.286822 	 0.023256 	 2.700278 
0.294574 	 0.023256 	 2.662813 
0.302326 	 0.023256 	 2.627745 
0.310078 	 0.023256 	 2.594945 
0.317829 	 0.023256 	 2.564291 
0.325581 	 0.023256 	 2.535667 
0.333333 	 0.023256 	 2.508963 
0.341085 	 0.023256 	 2.484074 
0.348837 	 0.023256 	 2.460904 
0.356589 	 0.023256 	 2.439357 
0.364341 	 0.023256 	 2.419348 
0.372093 	 0.023256 	 2.400792 
0.379845 	 0.023256 	 2.383611 
0.387597 	 0.023256 	 2.367731 
0.395349 	 0.023256 	 2.353085 
0.403101 	 0.023256 	 2.339605 
0.410853 	 0.023256 	 2.327233 
0.418605 	 0.023256 	 2.315912 
0.426357 	 0.023256 	 2.305588 
0.434109 	 0.023256 	 2.296213 
0.441860 	 0.023256 	 2.287743 
0.449612 	 0.023256 	 2.280136 
0.457364 	 0.023256 	 2.273356 
0.465116 	 0.023256 	 2.267368 
0.472868 	 0.023256 	 2.262144 
0.480620 	 0.023256 	 2.257656 
0.488372 	 0.023256 	 2.253882 
0.496124 	 0.023256 	 2.250804 
0.503876 	 0.023256 	 2.248406 
0.511628 	 0.023256 	 2.246676 
0.519380 	 0.023256 	 2.245607 
0.527132 	 0.023256 	 2.245195 
0.534884 	 0.023256 	 2.245439 
0.542636 	 0.023256 	 2.246343 
0.550388 	 0.023256 	 2.247914 
0.558140 	 0.023256 	 2.250165 
0.565891 	 0.023256 	 2.253111 
0.573643 	 0.023256 	 2.256773 
0.581395 	 0.023256 	 2.261174 
0.589147 	 0.023256 	 2.266346 
0.596899 	 0.023256 	 2.272321 
0.604651 	 0.023256 	 2.279139 
0.612403 	 0.023256 	 2.286846 
0.620155 	 0.023256 	 2.295492 
0.627907 	 0.023256 	 2.305134 
0.635659 	 0.023256 	 2.315835 
0.643411 	 0.023256 	 2.327664 
0.651163 	 0.023256 	 2.340701 
0.658915 	 0.023256 	 2.355031 
0.666667 	 0.023256 	 2.370747 
0.674419 	 0.023256 	 2.387956 
0.682171 	 0.023256 	 2.406770 
0.689922 	 0.023256 	 2.427316 
0.697674 	 0.023256 	 2.449734 
0.705426 	 0.023256 	 2.474174 
0.713178 	 0.023256 	 2.500805 
0.720930 	 0.023256 	 2.529811 
0.728682 	 0.023256 	 2.561396 
0.736434 	 0.023256 	 2.595785 
0.744186 	 0.023256 	 2.633224 
0.751938 	 0.023256 	 2.673988 
0.759690 	 0.023256 	 2.718380 
0.767442 	 0.023256 	 2.766735 
0.775194 	 0.023256 	 2.819423 
0.782946 	 0.023256 	 2.876856 
0.790698 	 0.023256 	 2.939490 
0.798450 	 0.023256 	 3.007828 
0.806202 	 0.023256 	 3.082427 
0.813953 	 0.023256 	 3.163900 
0.821705 	 0.023256 	 3.252920 
0.829457 	 0.023256 	 3.350219 
0.837209 	 0.023256 	 3.456587 
0.844961 	 0.023256 	 3.572858 
0.852713 	 0.023256 	 3.699893 
0.860465 	 0.023256 	 3.838542 
0.868217 	 0.023256 	 3.989572 
0.875969 	 0.023256 	 4.153557 
0.883721 	 0.023256 	 4.330685 
0.891473 	 0.023256 	 4.520442 
0.899225 	 0.023256 	 4.721087 
0.906977 	 0.023256 	 4.928787 
0.914729 	 0.023256 	 5.136188 
0.922481 	 0.023256 	 5.330047 
0.930233 	 0.023256 	 5.487323 
0.937984 	 0.023256 	 5.568792 
0.945736 	 0.023256 	 5.508884 
0.953488 	 0.023256 	 5.200300 
0.961240 	 0.023256 	 4.473169 
0.968992 	 0.023256 	 3.073841 
0.976744 	 0.023256 	 0.664335 
0.984496 	 0.023256 	 -3.098442 
0.992248 	 0.023256 	 -8.281059 
0.000000 	 0.031008 	 -5.210177 
0.007752 	 0.031008 	 -3.064071 
0.015504 	 0.031008 	 -1.190391 
0.023256 	 0.031008 	 0.367254 
0.031008 	 0.031008 	 1.592452 
0.038760 	 0.031008 	 2.506751 
0.046512 	 0.031008 	 3.157082 
0.054264 	 0.031008 	 3.598418 
0.062016 	 0.031008 	 3.882063 
0.069767 	 0.031008 	 4.050560 
0.077519 	 0.031008 	 4.136854 
0.085271 	 0.031008 	 4.165443 
0.093023 	 0.031008 	 4.154109 
0.100775 	 0.031008 	 4.115589 
0.108527 	 0.031008 	 4.058940 
0.116279 	 0.031008 	 3.990576 
0.124031 	 0.031008 	 3.915039 
0.131783 	 0.031008 	 3.835536 
0.139535 	 0.031008 	 3.754328 
0.147287 	 0.031008 	 3.673006 
0.155039 	 0.031008 	 3.592679 
0.162791 	 0.031008 	 3.514114 
0.170543 	 0.031008 	 3.437829 
0.178295 	 0.031008 	 3.364166 
0.186047 	 0.031008 	 3.293337 
0.193798 	 0.031008 	 3.225461 
0.201550 	 0.031008 	 3.160592 
0.209302 	 0.031008 	 3.098734 
0.217054 	 0.031008 	 3.039856 
0.224806 	 0.031008 	 2.983903 
0.232558 	 0.031008 	 2.930804 
0.240310 	 0.031008 	 2.880475 
0.248062 	 0.031008 	 2.832825 
0.255814 	 0.031008 	 2.787759 
0.263566 	 0.031008 	 2.745176 
0.271318 	 0.031008 	 2.704980 
0.279070 	 0.031008 	 2.667070 
0.286822 	 0.031008 	 2.631349 
0.294574 	 0.031008 	 2.597721 
0.302326 	 0.031008 	 2.566092 
0.310078 	 0.031008 	 2.536372 
0.317829 	 0.031008 	 2.508473 
0.325581 	 0.031008 	 2.482309 
0.333333 	 0.031008 	 2.457798 
0.341085 	 0.031008 	 2.434862 
0.348837 	 0.031008 	 2.413425 
0.356589 	 0.031008 	 2.393415 
0.364341 	 0.031008 	 2.374762 
0.372093 	 0.031008 	 2.357400 
0.379845 	 0.031008 	 2.341267 
0.387597 	 0.031008 	 2.326303 
0.395349 	 0.031008 	 2.312452 
0.403101 	 0.031008 	 2.299659 
0.410853 	 0.031008 	 2.287876 
0.418605 	 0.031008 	 2.277055 
0.426357 	 0.031008 	 2.267151 
0.434109 	 0.031008 	 2.258125 
0.441860 	 0.031008 	 2.249937 
0.449612 	 0.031008 	 2.242554 
0.457364 	 0.031008 	 2.235943 
0.465116 	 0.031008 	 2.230076 
0.472868 	 0.031008 	 2.224926 
0.480620 	 0.031008 	 2.220472 
0.488372 	 0.031008 	 2.216694 
0.496124 	 0.031008 	 2.213575 
0.503876 	 0.031008 	 2.211102 
0.511628 	 0.031008 	 2.209266 
0.519380 	 0.031008 	 2.208060 
0.527132 	 0.031008 	 2.207480 
0.534884 	 0.031008 	 2.207527 
0.542636 	 0.031008 	 2.208203 
0.550388 	 0.031008 	 2.209517 
0.558140 	 0.031008 	 2.211479 
0.565891 	 0.031008 	 2.214103 
0.573643 	 0.031008 	 2.217408 
0.581395 	 0.031008 	 2.221417 
0.589147 	 0.031008 	 2.226157 
0.596899 	 0.031008 	 2.231659 
0.604651 	 0.031008 	 2.237959 
0.612403 	 0.031008 	 2.245098 
0.620155 	 0.031008 	 2.253123 
0.627907 	 0.031008 	 2.262086 
0.635659 	 0.031008 	 2.272045 
0.643411 	 0.031008 	 2.283063 
0.651163 	 0.031008 	 2.295212 
0.658915 	 0.031008 	 2.308571 
0.666667 	 0.031008 	 2.323225 
0.674419 	 0.031008 	 2.339270 
0.682171 	 0.031008 	 2.356809 
0.689922 	 0.031008 	 2.375958 
0.697674 	 0.031008 	 2.396841 
0.705426 	 0.031008 	 2.419596 
0.713178 	 0.031008 	 2.444374 
0.720930 	 0.031008 	 2.471339 
0.728682 	 0.031008 	 2.500672 
0.736434 	 0.031008 	 2.532572 
0.744186 	 0.031008 	 2.567256 
0.751938 	 0.031008 	 2.604960 
0.759690 	 0.031008 	 2.645946 
0.767442 	 0.031008 	 2.690496 
0.775194 	 0.031008 	 2.738920 
0.782946 	 0.031008 	 2.791556 
0.790698 	 0.031008 	 2.848767 
0.798450 	 0.031008 	 2.910946 
0.806202 	 0.031008 	 2.978514 
0.813953 	 0.031008 	 3.051912 
0.821705 	 0.031008 	 3.131599 
0.829457 	 0.031008 	 3.218040 
0.837209 	 0.031008 	 3.311680 
0.844961 	 0.031008 	 3.412920 
0.852713 	 0.031008 	 3.522061 
0.860465 	 0.031008 	 3.639228 
0.868217 	 0.031008 	 3.764249 
0.875969 	 0.031008 	 3.896472 
0.883721 	 0.031008 	 4.034480 
0.891473 	 0.031008 	 4.175663 
0.899225 	 0.031008 	 4.315549 
0.906977 	 0.031008 	 4.446793 
0.914729 	 0.031008 	 4.557632 
0.922481 	 0.031008 	 4.629551 
0.930233 	 0.031008 	 4.633837 
0.937984 	 0.031008 	 4.526654 
0.945736 	 0.031008 	 4.242481 
0.953488 	 0.031008 	 3.686546 
0.961240 	 0.031008 	 2.729005 
0.968992 	 0.031008 	 1.208501 
0.976744 	 0.031008 	 -1.038495 
0.984496 	 0.031008 	 -4.095553 
0.992248 	 0.031008 	 -7.811216 
0.000000 	 0.038760 	 -4.995765 
0.007752 	 0.038760 	 -3.290844 
0.015504 	 0.038760 	 -1.757835 
0.023256 	 0.038760 	 -0.441649 
0.031008 	 0.038760 	 0.640724 
0.038760 	 0.038760 	 1.496635 
0.046512 	 0.038760 	 2.150450 
0.054264 	 0.038760 	 2.634588 
0.062016 	 0.038760 	 2.982416 
0.069767 	 0.038760 	 3.224097 
0.077519 	 0.038760 	 3.384891 
0.085271 	 0.038760 	 3.484972 
0.093023 	 0.038760 	 3.539981 
0.100775 	 0.038760 	 3.561825 
0.108527 	 0.038760 	 3.559469 
0.116279 	 0.038760 	 3.539624 
0.124031 	 0.038760 	 3.507302 
0.131783 	 0.038760 	 3.466241 
0.139535 	 0.038760 	 3.419232 
0.147287 	 0.038760 	 3.368357 
0.155039 	 0.038760 	 3.315174 
0.162791 	 0.038760 	 3.260843 
0.170543 	 0.038760 	 3.206232 
0.178295 	 0.038760 	 3.151985 
0.186047 	 0.038760 	 3.098577 
0.193798 	 0.038760 	 3.046357 
0.201550 	 0.038760 	 2.995576 
0.209302 	 0.038760 	 2.946410 
0.217054 	 0.038760 	 2.898981 
0.224806 	 0.038760 	 2.853364 
0.232558 	 0.038760 	 2.809604 
0.240310 	 0.038760 	 2.767718 
0.248062 	 0.038760 	 2.727705 
0.255814 	 0.038760 	 2.689548 
0.263566 	 0.038760 	 2.653219 
0.271318 	 0.038760 	 2.618682 
0.279070 	 0.038760 	 2.585893 
0.286822 	 0.038760 	 2.554805 
0.294574 	 0.038760 	 2.525367 
0.302326 	 0.038760 	 2.497527 
0.310078 	 0.038760 	 2.471229 
0.317829 	 0.038760 	 2.446418 
0.325581 	 0.038760 	 2.423040 
0.333333 	 0.038760 	 2.401040 
0.341085 	 0.038760 	 2.380363 
0.348837 	 0.038760 	 2.360957 
0.356589 	 0.038760 	 2.342768 
0.364341 	 0.038760 	 2.325748 
0.372093 	 0.038760 	 2.309846 
0.379845 	 0.038760 	 2.295016 
0.387597 	 0.038760 	 2.281211 
0.395349 	 0.038760 	 2.268389 
0.403101 	 0.038760 	 2.256508 
0.410853 	 0.038760 	 2.245528 
0.418605 	 0.038760 	 2.235412 
0.426357 	 0.038760 	 2.226125 
0.434109 	 0.038760 	 2.217633 
0.441860 	 0.038760 	 2.209906 
0.449612 	 0.038760 	 2.202916 
0.457364 	 0.038760 	 2.196637 
0.465116 	 0.038760 	 2.191044 
0.472868 	 0.038760 	 2.186118 
0.480620 	 0.038760 	 2.181839 
0.488372 	 0.038760 	 2.178192 
0.496124 	 0.038760 	 2.175163 
0.503876 	 0.038760 	 2.172742 
0.511628 	 0.038760 	 2.170920 
0.519380 	 0.038760 	 2.169693 
0.527132 	 0.038760 	 2.169059 
0.534884 	 0.038760 	 2.169018 
0.542636 	 0.038760 	 2.169574 
0.550388 	 0.038760 	 2.170735 
0.558140 	 0.038760 	 2.172511 
0.565891 	 0.038760 	 2.174915 
0.573643 	 0.038760 	 2.177966 
0.581395 	 0.038760 	 2.181684 
0.589147 	 0.038760 	 2.186094 
0.596899 	 0.038760 	 2.191225 
0.604651 	 0.038760 	 2.197110 
0.612403 	 0.038760 	 2.203788 
0.620155 	 0.038760 	 2.211301 
0.627907 	 0.038760 	 2.219696 
0.635659 	 0.038760 	 2.229027 
0.643411 	 0.038760 	 2.239352 
0.651163 	 0.038760 	 2.250736 
0.658915 	 0.038760 	 2.263251 
0.666667 	 0.038760 	 2.276974 
0.674419 	 0.038760 	 2.291993 
0.682171 	 0.038760 	 2.308400 
0.689922 	 0.038760 	 2.326299 
0.697674 	 0.038760 	 2.345803 
0.705426 	 0.038760 	 2.367033 
0.713178 	 0.038760 	 2.390124 
0.720930 	 0.038760 	 2.415220 
0.728682 	 0.038760 	 2.442479 
0.736434 	 0.038760 	 2.472072 
0.744186 	 0.038760 	 2.504185 
0.751938 	 0.038760 	 2.539018 
0.759690 	 0.038760 	 2.576786 
0.767442 	 0.038760 	 2.617721 
0.775194 	 0.038760 	 2.662066 
0.782946 	 0.038760 	 2.710083 
0.790698 	 0.038760 	 2.762041 
0.798450 	 0.038760 	 2.818217 
0.806202 	 0.038760 	 2.878890 
0.813953 	 0.038760 	 2.944326 
0.821705 	 0.038760 	 3.014766 
0.829457 	 0.038760 	 3.090400 
0.837209 	 0.038760 	 3.171334 
0.844961 	 0.038760 	 3.257534 
0.852713 	 0.038760 	 3.348759 
0.860465 	 0.038760 	 3.444441 
0.868217 	 0.038760 	 3.543538 
0.875969 	 0.038760 	 3.644293 
0.883721 	 0.038760 	 3.743908 
0.891473 	 0.038760 	 3.838052 
0.899225 	 0.038760 	 3.920174 
0.906977 	 0.038760 	 3.980500 
0.914729 	 0.038760 	 4.004644 
0.922481 	 0.038760 	 3.971693 
0.930233 	 0.038760 	 3.851714 
0.937984 	 0.038760 	 3.602761 
0.945736 	 0.038760 	 3.167867 
0.953488 	 0.038760 	 2.473405 
0.961240 	 0.038760 	 1.431796 
0.968992 	 0.038760 	 -0.045931 
0.976744 	 0.038760 	 -2.019904 
0.984496 	 0.038760 	 -4.467613 
0.992248 	 0.038760 	 -7.218309 
0.000000 	 0.046512 	 -4.697532 
0.007752 	 0.046512 	 -3.341750 
0.015504 	 0.046512 	 -2.087076 
0.023256 	 0.046512 	 -0.977467 
0.031008 	 0.046512 	 -0.032358 
0.038760 	 0.046512 	 0.747145 
0.046512 	 0.046512 	 1.372613 
0.054264 	 0.046512 	 1.862751 
0.062016 	 0.046512 	 2.238848 
0.069767 	 0.046512 	 2.521701 
0.077519 	 0.046512 	 2.729944 
0.085271 	 0.046512 	 2.879388 
0.093023 	 0.046512 	 2.982989 
0.100775 	 0.046512 	 3.051119 
0.108527 	 0.046512 	 3.091964 
0.116279 	 0.046512 	 3.111925 
0.124031 	 0.046512 	 3.115985 
0.131783 	 0.046512 	 3.108010 
0.139535 	 0.046512 	 3.091000 
0.147287 	 0.046512 	 3.067284 
0.155039 	 0.046512 	 3.038672 
0.162791 	 0.046512 	 3.006571 
0.170543 	 0.046512 	 2.972078 
0.178295 	 0.046512 	 2.936048 
0.186047 	 0.046512 	 2.899149 
0.193798 	 0.046512 	 2.861900 
0.201550 	 0.046512 	 2.824706 
0.209302 	 0.046512 	 2.787882 
0.217054 	 0.046512 	 2.751669 
0.224806 	 0.046512 	 2.716253 
0.232558 	 0.046512 	 2.681774 
0.240310 	 0.046512 	 2.648336 
0.248062 	 0.046512 	 2.616016 
0.255814 	 0.046512 	 2.584866 
0.263566 	 0.046512 	 2.554919 
0.271318 	 0.046512 	 2.526195 
0.279070 	 0.046512 	 2.498701 
0.286822 	 0.046512 	 2.472436 
0.294574 	 0.046512 	 2.447389 
0.302326 	 0.046512 	 2.423544 
0.310078 	 0.046512 	 2.400882 
0.317829 	 0.046512 	 2.379377 
0.325581 	 0.046512 	 2.359003 
0.333333 	 0.046512 	 2.339730 
0.341085 	 0.046512 	 2.321528 
0.348837 	 0.046512 	 2.304365 
0.356589 	 0.046512 	 2.288207 
0.364341 	 0.046512 	 2.273024 
0.372093 	 0.046512 	 2.258782 
0.379845 	 0.046512 	 2.245449 
0.387597 	 0.046512 	 2.232993 
0.395349 	 0.046512 	 2.221383 
0.403101 	 0.046512 	 2.210590 
0.410853 	 0.046512 	 2.200584 
0.418605 	 0.046512 	 2.191338 
0.426357 	 0.046512 	 2.182825 
0.434109 	 0.046512 	 2.175020 
0.441860 	 0.046512 	 2.167901 
0.449612 	 0.046512 	 2.161445 
0.457364 	 0.046512 	 2.155632 
0.465116 	 0.046512 	 2.150445 
0.472868 	 0.046512 	 2.145866 
0.480620 	 0.046512 	 2.141883 
0.488372 	 0.046512 	 2.138482 
0.496124 	 0.046512 	 2.135654 
0.503876 	 0.046512 	 2.133390 
0.511628 	 0.046512 	 2.131687 
0.519380 	 0.046512 	 2.130539 
0.527132 	 0.046512 	 2.129947 
0.534884 	 0.046512 	 2.129913 
0.542636 	 0.046512 	 2.130442 
0.550388 	 0.046512 	 2.131540 
0.558140 	 0.046512 	 2.133219 
0.565891 	 0.046512 	 2.135491 
0.573643 	 0.046512 	 2.138374 
0.581395 	 0.046512 	 2.141887 
0.589147 	 0.046512 	 2.146054 
0.596899 	 0.046512 	 2.150901 
0.604651 	 0.046512 	 2.156460 
0.612403 	 0.046512 	 2.162765 
0.620155 	 0.046512 	 2.169855 
0.627907 	 0.046512 	 2.177774 
0.635659 	 0.046512 	 2.186571 
0.643411 	 0.046512 	 2.196298 
0.651163 	 0.046512 	 2.207016 
0.658915 	 0.046512 	 2.218787 
0.666667 	 0.046512 	 2.231684 
0.674419 	 0.046512 	 2.245783 
0.682171 	 0.046512 	 2.261169 
0.689922 	 0.046512 	 2.277932 
0.697674 	 0.046512 	 2.296173 
0.705426 	 0.046512 	 2.315998 
0.713178 	 0.046512 	 2.337523 
0.720930 	 0.046512 	 2.360873 
0.728682 	 0.046512 	 2.386182 
0.736434 	 0.046512 	 2.413594 
0.744186 	 0.046512 	 2.443261 
0.751938 	 0.046512 	 2.475345 
0.759690 	 0.046512 	 2.510014 
0.767442 	 0.046512 	 2.547445 
0.775194 	 0.046512 	 2.587816 
0.782946 	 0.046512 	 2.631307 
0.790698 	 0.046512 	 2.678091 
0.798450 	 0.046512 	 2.728328 
0.806202 	 0.046512 	 2.782149 
0.813953 	 0.046512 	 2.839646 
0.821705 	 0.046512 	 2.900840 
0.829457 	 0.046512 	 2.965652 
0.837209 	 0.046512 	 3.033855 
0.844961 	 0.046512 	 3.105006 
0.852713 	 0.046512 	 3.178353 
0.860465 	 0.046512 	 3.252706 
0.868217 	 0.046512 	 3.326257 
0.875969 	 0.046512 	 3.396327 
0.883721 	 0.046512 	 3.459022 
0.891473 	 0.046512 	 3.508755 
0.899225 	 0.046512 	 3.537609 
0.906977 	 0.046512 	 3.534481 
0.914729 	 0.046512 	 3.483995 
0.922481 	 0.046512 	 3.365178 
0.930233 	 0.046512 	 3.150005 
0.937984 	 0.046512 	 2.802130 
0.945736 	 0.046512 	 2.276469 
0.953488 	 0.046512 	 1.520942 