VARIABLES ="X", "Y", "PSI"
ZONE T = "BLOCK1", I = 129, J = 129, F = POINT

0.000000 	 0.000000 	 0.000000 
0.007752 	 0.000000 	 0.000000 
0.015504 	 0.000000 	 0.000000 
0.023256 	 0.000000 	 0.000000 
0.031008 	 0.000000 	 0.000000 
0.038760 	 0.000000 	 0.000000 
0.046512 	 0.000000 	 0.000000 
0.054264 	 0.000000 	 0.000000 
0.062016 	 0.000000 	 0.000000 
0.069767 	 0.000000 	 0.000000 
0.077519 	 0.000000 	 0.000000 
0.085271 	 0.000000 	 0.000000 
0.093023 	 0.000000 	 0.000000 
0.100775 	 0.000000 	 0.000000 
0.108527 	 0.000000 	 0.000000 
0.116279 	 0.000000 	 0.000000 
0.124031 	 0.000000 	 0.000000 
0.131783 	 0.000000 	 0.000000 
0.139535 	 0.000000 	 0.000000 
0.147287 	 0.000000 	 0.000000 
0.155039 	 0.000000 	 0.000000 
0.162791 	 0.000000 	 0.000000 
0.170543 	 0.000000 	 0.000000 
0.178295 	 0.000000 	 0.000000 
0.186047 	 0.000000 	 0.000000 
0.193798 	 0.000000 	 0.000000 
0.201550 	 0.000000 	 0.000000 
0.209302 	 0.000000 	 0.000000 
0.217054 	 0.000000 	 0.000000 
0.224806 	 0.000000 	 0.000000 
0.232558 	 0.000000 	 0.000000 
0.240310 	 0.000000 	 0.000000 
0.248062 	 0.000000 	 0.000000 
0.255814 	 0.000000 	 0.000000 
0.263566 	 0.000000 	 0.000000 
0.271318 	 0.000000 	 0.000000 
0.279070 	 0.000000 	 0.000000 
0.286822 	 0.000000 	 0.000000 
0.294574 	 0.000000 	 0.000000 
0.302326 	 0.000000 	 0.000000 
0.310078 	 0.000000 	 0.000000 
0.317829 	 0.000000 	 0.000000 
0.325581 	 0.000000 	 0.000000 
0.333333 	 0.000000 	 0.000000 
0.341085 	 0.000000 	 0.000000 
0.348837 	 0.000000 	 0.000000 
0.356589 	 0.000000 	 0.000000 
0.364341 	 0.000000 	 0.000000 
0.372093 	 0.000000 	 0.000000 
0.379845 	 0.000000 	 0.000000 
0.387597 	 0.000000 	 0.000000 
0.395349 	 0.000000 	 0.000000 
0.403101 	 0.000000 	 0.000000 
0.410853 	 0.000000 	 0.000000 
0.418605 	 0.000000 	 0.000000 
0.426357 	 0.000000 	 0.000000 
0.434109 	 0.000000 	 0.000000 
0.441860 	 0.000000 	 0.000000 
0.449612 	 0.000000 	 0.000000 
0.457364 	 0.000000 	 0.000000 
0.465116 	 0.000000 	 0.000000 
0.472868 	 0.000000 	 0.000000 
0.480620 	 0.000000 	 0.000000 
0.488372 	 0.000000 	 0.000000 
0.496124 	 0.000000 	 0.000000 
0.503876 	 0.000000 	 0.000000 
0.511628 	 0.000000 	 0.000000 
0.519380 	 0.000000 	 0.000000 
0.527132 	 0.000000 	 0.000000 
0.534884 	 0.000000 	 0.000000 
0.542636 	 0.000000 	 0.000000 
0.550388 	 0.000000 	 0.000000 
0.558140 	 0.000000 	 0.000000 
0.565891 	 0.000000 	 0.000000 
0.573643 	 0.000000 	 0.000000 
0.581395 	 0.000000 	 0.000000 
0.589147 	 0.000000 	 0.000000 
0.596899 	 0.000000 	 0.000000 
0.604651 	 0.000000 	 0.000000 
0.612403 	 0.000000 	 0.000000 
0.620155 	 0.000000 	 0.000000 
0.627907 	 0.000000 	 0.000000 
0.635659 	 0.000000 	 0.000000 
0.643411 	 0.000000 	 0.000000 
0.651163 	 0.000000 	 0.000000 
0.658915 	 0.000000 	 0.000000 
0.666667 	 0.000000 	 0.000000 
0.674419 	 0.000000 	 0.000000 
0.682171 	 0.000000 	 0.000000 
0.689922 	 0.000000 	 0.000000 
0.697674 	 0.000000 	 0.000000 
0.705426 	 0.000000 	 0.000000 
0.713178 	 0.000000 	 0.000000 
0.720930 	 0.000000 	 0.000000 
0.728682 	 0.000000 	 0.000000 
0.736434 	 0.000000 	 0.000000 
0.744186 	 0.000000 	 0.000000 
0.751938 	 0.000000 	 0.000000 
0.759690 	 0.000000 	 0.000000 
0.767442 	 0.000000 	 0.000000 
0.775194 	 0.000000 	 0.000000 
0.782946 	 0.000000 	 0.000000 
0.790698 	 0.000000 	 0.000000 
0.798450 	 0.000000 	 0.000000 
0.806202 	 0.000000 	 0.000000 
0.813953 	 0.000000 	 0.000000 
0.821705 	 0.000000 	 0.000000 
0.829457 	 0.000000 	 0.000000 
0.837209 	 0.000000 	 0.000000 
0.844961 	 0.000000 	 0.000000 
0.852713 	 0.000000 	 0.000000 
0.860465 	 0.000000 	 0.000000 
0.868217 	 0.000000 	 0.000000 
0.875969 	 0.000000 	 0.000000 
0.883721 	 0.000000 	 0.000000 
0.891473 	 0.000000 	 0.000000 
0.899225 	 0.000000 	 0.000000 
0.906977 	 0.000000 	 0.000000 
0.914729 	 0.000000 	 0.000000 
0.922481 	 0.000000 	 0.000000 
0.930233 	 0.000000 	 0.000000 
0.937984 	 0.000000 	 0.000000 
0.945736 	 0.000000 	 0.000000 
0.953488 	 0.000000 	 0.000000 
0.961240 	 0.000000 	 0.000000 
0.968992 	 0.000000 	 0.000000 
0.976744 	 0.000000 	 0.000000 
0.984496 	 0.000000 	 0.000000 
0.992248 	 0.000000 	 0.000000 
0.000000 	 0.007752 	 0.000000 
0.007752 	 0.007752 	 0.000100 
0.015504 	 0.007752 	 0.000210 
0.023256 	 0.007752 	 0.000347 
0.031008 	 0.007752 	 0.000499 
0.038760 	 0.007752 	 0.000648 
0.046512 	 0.007752 	 0.000787 
0.054264 	 0.007752 	 0.000912 
0.062016 	 0.007752 	 0.001022 
0.069767 	 0.007752 	 0.001120 
0.077519 	 0.007752 	 0.001206 
0.085271 	 0.007752 	 0.001282 
0.093023 	 0.007752 	 0.001350 
0.100775 	 0.007752 	 0.001411 
0.108527 	 0.007752 	 0.001466 
0.116279 	 0.007752 	 0.001516 
0.124031 	 0.007752 	 0.001562 
0.131783 	 0.007752 	 0.001604 
0.139535 	 0.007752 	 0.001643 
0.147287 	 0.007752 	 0.001679 
0.155039 	 0.007752 	 0.001712 
0.162791 	 0.007752 	 0.001743 
0.170543 	 0.007752 	 0.001772 
0.178295 	 0.007752 	 0.001800 
0.186047 	 0.007752 	 0.001825 
0.193798 	 0.007752 	 0.001849 
0.201550 	 0.007752 	 0.001872 
0.209302 	 0.007752 	 0.001893 
0.217054 	 0.007752 	 0.001913 
0.224806 	 0.007752 	 0.001932 
0.232558 	 0.007752 	 0.001950 
0.240310 	 0.007752 	 0.001967 
0.248062 	 0.007752 	 0.001983 
0.255814 	 0.007752 	 0.001998 
0.263566 	 0.007752 	 0.002013 
0.271318 	 0.007752 	 0.002026 
0.279070 	 0.007752 	 0.002039 
0.286822 	 0.007752 	 0.002052 
0.294574 	 0.007752 	 0.002063 
0.302326 	 0.007752 	 0.002074 
0.310078 	 0.007752 	 0.002085 
0.317829 	 0.007752 	 0.002095 
0.325581 	 0.007752 	 0.002104 
0.333333 	 0.007752 	 0.002113 
0.341085 	 0.007752 	 0.002121 
0.348837 	 0.007752 	 0.002129 
0.356589 	 0.007752 	 0.002137 
0.364341 	 0.007752 	 0.002144 
0.372093 	 0.007752 	 0.002151 
0.379845 	 0.007752 	 0.002158 
0.387597 	 0.007752 	 0.002164 
0.395349 	 0.007752 	 0.002170 
0.403101 	 0.007752 	 0.002175 
0.410853 	 0.007752 	 0.002181 
0.418605 	 0.007752 	 0.002186 
0.426357 	 0.007752 	 0.002190 
0.434109 	 0.007752 	 0.002195 
0.441860 	 0.007752 	 0.002199 
0.449612 	 0.007752 	 0.002203 
0.457364 	 0.007752 	 0.002207 
0.465116 	 0.007752 	 0.002211 
0.472868 	 0.007752 	 0.002214 
0.480620 	 0.007752 	 0.002217 
0.488372 	 0.007752 	 0.002220 
0.496124 	 0.007752 	 0.002223 
0.503876 	 0.007752 	 0.002225 
0.511628 	 0.007752 	 0.002228 
0.519380 	 0.007752 	 0.002230 
0.527132 	 0.007752 	 0.002232 
0.534884 	 0.007752 	 0.002234 
0.542636 	 0.007752 	 0.002235 
0.550388 	 0.007752 	 0.002237 
0.558140 	 0.007752 	 0.002238 
0.565891 	 0.007752 	 0.002239 
0.573643 	 0.007752 	 0.002240 
0.581395 	 0.007752 	 0.002241 
0.589147 	 0.007752 	 0.002241 
0.596899 	 0.007752 	 0.002242 
0.604651 	 0.007752 	 0.002242 
0.612403 	 0.007752 	 0.002242 
0.620155 	 0.007752 	 0.002241 
0.627907 	 0.007752 	 0.002241 
0.635659 	 0.007752 	 0.002240 
0.643411 	 0.007752 	 0.002238 
0.651163 	 0.007752 	 0.002237 
0.658915 	 0.007752 	 0.002235 
0.666667 	 0.007752 	 0.002233 
0.674419 	 0.007752 	 0.002231 
0.682171 	 0.007752 	 0.002228 
0.689922 	 0.007752 	 0.002225 
0.697674 	 0.007752 	 0.002222 
0.705426 	 0.007752 	 0.002218 
0.713178 	 0.007752 	 0.002213 
0.720930 	 0.007752 	 0.002208 
0.728682 	 0.007752 	 0.002203 
0.736434 	 0.007752 	 0.002197 
0.744186 	 0.007752 	 0.002191 
0.751938 	 0.007752 	 0.002183 
0.759690 	 0.007752 	 0.002176 
0.767442 	 0.007752 	 0.002167 
0.775194 	 0.007752 	 0.002158 
0.782946 	 0.007752 	 0.002148 
0.790698 	 0.007752 	 0.002137 
0.798450 	 0.007752 	 0.002125 
0.806202 	 0.007752 	 0.002112 
0.813953 	 0.007752 	 0.002097 
0.821705 	 0.007752 	 0.002082 
0.829457 	 0.007752 	 0.002065 
0.837209 	 0.007752 	 0.002046 
0.844961 	 0.007752 	 0.002026 
0.852713 	 0.007752 	 0.002003 
0.860465 	 0.007752 	 0.001979 
0.868217 	 0.007752 	 0.001951 
0.875969 	 0.007752 	 0.001921 
0.883721 	 0.007752 	 0.001887 
0.891473 	 0.007752 	 0.001848 
0.899225 	 0.007752 	 0.001804 
0.906977 	 0.007752 	 0.001753 
0.914729 	 0.007752 	 0.001693 
0.922481 	 0.007752 	 0.001622 
0.930233 	 0.007752 	 0.001538 
0.937984 	 0.007752 	 0.001434 
0.945736 	 0.007752 	 0.001306 
0.953488 	 0.007752 	 0.001146 
0.961240 	 0.007752 	 0.000946 
0.968992 	 0.007752 	 0.000702 
0.976744 	 0.007752 	 0.000425 
0.984496 	 0.007752 	 0.000164 
0.992248 	 0.007752 	 0.000023 
0.000000 	 0.015504 	 0.000000 
0.007752 	 0.015504 	 0.000126 
0.015504 	 0.015504 	 0.000276 
0.023256 	 0.015504 	 0.000480 
0.031008 	 0.015504 	 0.000720 
0.038760 	 0.015504 	 0.000973 
0.046512 	 0.015504 	 0.001220 
0.054264 	 0.015504 	 0.001453 
0.062016 	 0.015504 	 0.001667 
0.069767 	 0.015504 	 0.001861 
0.077519 	 0.015504 	 0.002036 
0.085271 	 0.015504 	 0.002195 
0.093023 	 0.015504 	 0.002339 
0.100775 	 0.015504 	 0.002470 
0.108527 	 0.015504 	 0.002589 
0.116279 	 0.015504 	 0.002699 
0.124031 	 0.015504 	 0.002800 
0.131783 	 0.015504 	 0.002893 
0.139535 	 0.015504 	 0.002980 
0.147287 	 0.015504 	 0.003061 
0.155039 	 0.015504 	 0.003136 
0.162791 	 0.015504 	 0.003207 
0.170543 	 0.015504 	 0.003272 
0.178295 	 0.015504 	 0.003334 
0.186047 	 0.015504 	 0.003393 
0.193798 	 0.015504 	 0.003447 
0.201550 	 0.015504 	 0.003499 
0.209302 	 0.015504 	 0.003548 
0.217054 	 0.015504 	 0.003593 
0.224806 	 0.015504 	 0.003637 
0.232558 	 0.015504 	 0.003678 
0.240310 	 0.015504 	 0.003716 
0.248062 	 0.015504 	 0.003753 
0.255814 	 0.015504 	 0.003788 
0.263566 	 0.015504 	 0.003821 
0.271318 	 0.015504 	 0.003852 
0.279070 	 0.015504 	 0.003881 
0.286822 	 0.015504 	 0.003909 
0.294574 	 0.015504 	 0.003935 
0.302326 	 0.015504 	 0.003960 
0.310078 	 0.015504 	 0.003984 
0.317829 	 0.015504 	 0.004007 
0.325581 	 0.015504 	 0.004028 
0.333333 	 0.015504 	 0.004048 
0.341085 	 0.015504 	 0.004067 
0.348837 	 0.015504 	 0.004085 
0.356589 	 0.015504 	 0.004102 
0.364341 	 0.015504 	 0.004119 
0.372093 	 0.015504 	 0.004134 
0.379845 	 0.015504 	 0.004149 
0.387597 	 0.015504 	 0.004163 
0.395349 	 0.015504 	 0.004176 
0.403101 	 0.015504 	 0.004188 
0.410853 	 0.015504 	 0.004200 
0.418605 	 0.015504 	 0.004211 
0.426357 	 0.015504 	 0.004222 
0.434109 	 0.015504 	 0.004232 
0.441860 	 0.015504 	 0.004241 
0.449612 	 0.015504 	 0.004250 
0.457364 	 0.015504 	 0.004259 
0.465116 	 0.015504 	 0.004267 
0.472868 	 0.015504 	 0.004274 
0.480620 	 0.015504 	 0.004281 
0.488372 	 0.015504 	 0.004288 
0.496124 	 0.015504 	 0.004294 
0.503876 	 0.015504 	 0.004300 
0.511628 	 0.015504 	 0.004305 
0.519380 	 0.015504 	 0.004310 
0.527132 	 0.015504 	 0.004314 
0.534884 	 0.015504 	 0.004319 
0.542636 	 0.015504 	 0.004322 
0.550388 	 0.015504 	 0.004326 
0.558140 	 0.015504 	 0.004329 
0.565891 	 0.015504 	 0.004331 
0.573643 	 0.015504 	 0.004333 
0.581395 	 0.015504 	 0.004335 
0.589147 	 0.015504 	 0.004336 
0.596899 	 0.015504 	 0.004337 
0.604651 	 0.015504 	 0.004337 
0.612403 	 0.015504 	 0.004337 
0.620155 	 0.015504 	 0.004337 
0.627907 	 0.015504 	 0.004335 
0.635659 	 0.015504 	 0.004334 
0.643411 	 0.015504 	 0.004331 
0.651163 	 0.015504 	 0.004328 
0.658915 	 0.015504 	 0.004325 
0.666667 	 0.015504 	 0.004320 
0.674419 	 0.015504 	 0.004315 
0.682171 	 0.015504 	 0.004309 
0.689922 	 0.015504 	 0.004303 
0.697674 	 0.015504 	 0.004295 
0.705426 	 0.015504 	 0.004286 
0.713178 	 0.015504 	 0.004277 
0.720930 	 0.015504 	 0.004266 
0.728682 	 0.015504 	 0.004254 
0.736434 	 0.015504 	 0.004241 
0.744186 	 0.015504 	 0.004227 
0.751938 	 0.015504 	 0.004211 
0.759690 	 0.015504 	 0.004193 
0.767442 	 0.015504 	 0.004174 
0.775194 	 0.015504 	 0.004153 
0.782946 	 0.015504 	 0.004130 
0.790698 	 0.015504 	 0.004106 
0.798450 	 0.015504 	 0.004078 
0.806202 	 0.015504 	 0.004049 
0.813953 	 0.015504 	 0.004017 
0.821705 	 0.015504 	 0.003981 
0.829457 	 0.015504 	 0.003943 
0.837209 	 0.015504 	 0.003901 
0.844961 	 0.015504 	 0.003854 
0.852713 	 0.015504 	 0.003803 
0.860465 	 0.015504 	 0.003747 
0.868217 	 0.015504 	 0.003684 
0.875969 	 0.015504 	 0.003614 
0.883721 	 0.015504 	 0.003536 
0.891473 	 0.015504 	 0.003447 
0.899225 	 0.015504 	 0.003346 
0.906977 	 0.015504 	 0.003229 
0.914729 	 0.015504 	 0.003094 
0.922481 	 0.015504 	 0.002934 
0.930233 	 0.015504 	 0.002744 
0.937984 	 0.015504 	 0.002515 
0.945736 	 0.015504 	 0.002238 
0.953488 	 0.015504 	 0.001903 
0.961240 	 0.015504 	 0.001502 
0.968992 	 0.015504 	 0.001044 
0.976744 	 0.015504 	 0.000567 
0.984496 	 0.015504 	 0.000172 
0.992248 	 0.015504 	 0.000006 
0.000000 	 0.023256 	 0.000000 
0.007752 	 0.023256 	 0.000116 
0.015504 	 0.023256 	 0.000271 
0.023256 	 0.023256 	 0.000498 
0.031008 	 0.023256 	 0.000784 
0.038760 	 0.023256 	 0.001101 
0.046512 	 0.023256 	 0.001426 
0.054264 	 0.023256 	 0.001743 
0.062016 	 0.023256 	 0.002043 
0.069767 	 0.023256 	 0.002322 
0.077519 	 0.023256 	 0.002581 
0.085271 	 0.023256 	 0.002819 
0.093023 	 0.023256 	 0.003039 
0.100775 	 0.023256 	 0.003241 
0.108527 	 0.023256 	 0.003428 
0.116279 	 0.023256 	 0.003601 
0.124031 	 0.023256 	 0.003762 
0.131783 	 0.023256 	 0.003912 
0.139535 	 0.023256 	 0.004051 
0.147287 	 0.023256 	 0.004182 
0.155039 	 0.023256 	 0.004304 
0.162791 	 0.023256 	 0.004419 
0.170543 	 0.023256 	 0.004527 
0.178295 	 0.023256 	 0.004629 
0.186047 	 0.023256 	 0.004725 
0.193798 	 0.023256 	 0.004815 
0.201550 	 0.023256 	 0.004900 
0.209302 	 0.023256 	 0.004980 
0.217054 	 0.023256 	 0.005056 
0.224806 	 0.023256 	 0.005128 
0.232558 	 0.023256 	 0.005196 
0.240310 	 0.023256 	 0.005260 
0.248062 	 0.023256 	 0.005321 
0.255814 	 0.023256 	 0.005379 
0.263566 	 0.023256 	 0.005433 
0.271318 	 0.023256 	 0.005485 
0.279070 	 0.023256 	 0.005534 
0.286822 	 0.023256 	 0.005580 
0.294574 	 0.023256 	 0.005624 
0.302326 	 0.023256 	 0.005665 
0.310078 	 0.023256 	 0.005705 
0.317829 	 0.023256 	 0.005742 
0.325581 	 0.023256 	 0.005777 
0.333333 	 0.023256 	 0.005811 
0.341085 	 0.023256 	 0.005842 
0.348837 	 0.023256 	 0.005872 
0.356589 	 0.023256 	 0.005901 
0.364341 	 0.023256 	 0.005928 
0.372093 	 0.023256 	 0.005953 
0.379845 	 0.023256 	 0.005977 
0.387597 	 0.023256 	 0.006000 
0.395349 	 0.023256 	 0.006022 
0.403101 	 0.023256 	 0.006042 
0.410853 	 0.023256 	 0.006062 
0.418605 	 0.023256 	 0.006080 
0.426357 	 0.023256 	 0.006098 
0.434109 	 0.023256 	 0.006114 
0.441860 	 0.023256 	 0.006130 
0.449612 	 0.023256 	 0.006144 
0.457364 	 0.023256 	 0.006158 
0.465116 	 0.023256 	 0.006171 
0.472868 	 0.023256 	 0.006183 
0.480620 	 0.023256 	 0.006195 
0.488372 	 0.023256 	 0.006206 
0.496124 	 0.023256 	 0.006216 
0.503876 	 0.023256 	 0.006225 
0.511628 	 0.023256 	 0.006234 
0.519380 	 0.023256 	 0.006242 
0.527132 	 0.023256 	 0.006250 
0.534884 	 0.023256 	 0.006257 
0.542636 	 0.023256 	 0.006263 
0.550388 	 0.023256 	 0.006269 
0.558140 	 0.023256 	 0.006274 
0.565891 	 0.023256 	 0.006278 
0.573643 	 0.023256 	 0.006282 
0.581395 	 0.023256 	 0.006285 
0.589147 	 0.023256 	 0.006287 
0.596899 	 0.023256 	 0.006289 
0.604651 	 0.023256 	 0.006290 
0.612403 	 0.023256 	 0.006290 
0.620155 	 0.023256 	 0.006289 
0.627907 	 0.023256 	 0.006287 
0.635659 	 0.023256 	 0.006285 
0.643411 	 0.023256 	 0.006281 
0.651163 	 0.023256 	 0.006277 
0.658915 	 0.023256 	 0.006271 
0.666667 	 0.023256 	 0.006264 
0.674419 	 0.023256 	 0.006256 
0.682171 	 0.023256 	 0.006247 
0.689922 	 0.023256 	 0.006236 
0.697674 	 0.023256 	 0.006224 
0.705426 	 0.023256 	 0.006210 
0.713178 	 0.023256 	 0.006195 
0.720930 	 0.023256 	 0.006178 
0.728682 	 0.023256 	 0.006158 
0.736434 	 0.023256 	 0.006137 
0.744186 	 0.023256 	 0.006114 
0.751938 	 0.023256 	 0.006088 
0.759690 	 0.023256 	 0.006059 
0.767442 	 0.023256 	 0.006028 
0.775194 	 0.023256 	 0.005994 
0.782946 	 0.023256 	 0.005956 
0.790698 	 0.023256 	 0.005916 
0.798450 	 0.023256 	 0.005871 
0.806202 	 0.023256 	 0.005822 
0.813953 	 0.023256 	 0.005769 
0.821705 	 0.023256 	 0.005711 
0.829457 	 0.023256 	 0.005647 
0.837209 	 0.023256 	 0.005577 
0.844961 	 0.023256 	 0.005500 
0.852713 	 0.023256 	 0.005415 
0.860465 	 0.023256 	 0.005322 
0.868217 	 0.023256 	 0.005218 
0.875969 	 0.023256 	 0.005102 
0.883721 	 0.023256 	 0.004971 
0.891473 	 0.023256 	 0.004824 
0.899225 	 0.023256 	 0.004657 
0.906977 	 0.023256 	 0.004464 
0.914729 	 0.023256 	 0.004242 
0.922481 	 0.023256 	 0.003981 
0.930233 	 0.023256 	 0.003675 
0.937984 	 0.023256 	 0.003313 
0.945736 	 0.023256 	 0.002884 
0.953488 	 0.023256 	 0.002381 
0.961240 	 0.023256 	 0.001806 
0.968992 	 0.023256 	 0.001184 
0.976744 	 0.023256 	 0.000583 
0.984496 	 0.023256 	 0.000134 
0.992248 	 0.023256 	 -0.000016 
0.000000 	 0.031008 	 0.000000 
0.007752 	 0.031008 	 0.000093 
0.015504 	 0.031008 	 0.000233 
0.023256 	 0.031008 	 0.000461 
0.031008 	 0.031008 	 0.000764 
0.038760 	 0.031008 	 0.001116 
0.046512 	 0.031008 	 0.001490 
0.054264 	 0.031008 	 0.001867 
0.062016 	 0.031008 	 0.002234 
0.069767 	 0.031008 	 0.002585 
0.077519 	 0.031008 	 0.002915 
0.085271 	 0.031008 	 0.003225 
0.093023 	 0.031008 	 0.003515 
0.100775 	 0.031008 	 0.003786 
0.108527 	 0.031008 	 0.004038 
0.116279 	 0.031008 	 0.004274 
0.124031 	 0.031008 	 0.004495 
0.131783 	 0.031008 	 0.004703 
0.139535 	 0.031008 	 0.004897 
0.147287 	 0.031008 	 0.005080 
0.155039 	 0.031008 	 0.005252 
0.162791 	 0.031008 	 0.005413 
0.170543 	 0.031008 	 0.005566 
0.178295 	 0.031008 	 0.005710 
0.186047 	 0.031008 	 0.005846 
0.193798 	 0.031008 	 0.005975 
0.201550 	 0.031008 	 0.006097 
0.209302 	 0.031008 	 0.006212 
0.217054 	 0.031008 	 0.006321 
0.224806 	 0.031008 	 0.006424 
0.232558 	 0.031008 	 0.006521 
0.240310 	 0.031008 	 0.006614 
0.248062 	 0.031008 	 0.006701 
0.255814 	 0.031008 	 0.006784 
0.263566 	 0.031008 	 0.006863 
0.271318 	 0.031008 	 0.006937 
0.279070 	 0.031008 	 0.007008 
0.286822 	 0.031008 	 0.007075 
0.294574 	 0.031008 	 0.007138 
0.302326 	 0.031008 	 0.007198 
0.310078 	 0.031008 	 0.007255 
0.317829 	 0.031008 	 0.007309 
0.325581 	 0.031008 	 0.007360 
0.333333 	 0.031008 	 0.007408 
0.341085 	 0.031008 	 0.007454 
0.348837 	 0.031008 	 0.007497 
0.356589 	 0.031008 	 0.007538 
0.364341 	 0.031008 	 0.007577 
0.372093 	 0.031008 	 0.007614 
0.379845 	 0.031008 	 0.007648 
0.387597 	 0.031008 	 0.007681 
0.395349 	 0.031008 	 0.007713 
0.403101 	 0.031008 	 0.007742 
0.410853 	 0.031008 	 0.007770 
0.418605 	 0.031008 	 0.007797 
0.426357 	 0.031008 	 0.007822 
0.434109 	 0.031008 	 0.007845 
0.441860 	 0.031008 	 0.007868 
0.449612 	 0.031008 	 0.007889 
0.457364 	 0.031008 	 0.007909 
0.465116 	 0.031008 	 0.007927 
0.472868 	 0.031008 	 0.007945 
0.480620 	 0.031008 	 0.007962 
0.488372 	 0.031008 	 0.007978 
0.496124 	 0.031008 	 0.007992 
0.503876 	 0.031008 	 0.008006 
0.511628 	 0.031008 	 0.008019 
0.519380 	 0.031008 	 0.008031 
0.527132 	 0.031008 	 0.008042 
0.534884 	 0.031008 	 0.008052 
0.542636 	 0.031008 	 0.008061 
0.550388 	 0.031008 	 0.008069 
0.558140 	 0.031008 	 0.008077 
0.565891 	 0.031008 	 0.008083 
0.573643 	 0.031008 	 0.008089 
0.581395 	 0.031008 	 0.008093 
0.589147 	 0.031008 	 0.008097 
0.596899 	 0.031008 	 0.008100 
0.604651 	 0.031008 	 0.008101 
0.612403 	 0.031008 	 0.008102 
0.620155 	 0.031008 	 0.008101 
0.627907 	 0.031008 	 0.008099 
0.635659 	 0.031008 	 0.008096 
0.643411 	 0.031008 	 0.008091 
0.651163 	 0.031008 	 0.008085 
0.658915 	 0.031008 	 0.008078 
0.666667 	 0.031008 	 0.008069 
0.674419 	 0.031008 	 0.008058 
0.682171 	 0.031008 	 0.008045 
0.689922 	 0.031008 	 0.008030 
0.697674 	 0.031008 	 0.008013 
0.705426 	 0.031008 	 0.007994 
0.713178 	 0.031008 	 0.007972 
0.720930 	 0.031008 	 0.007947 
0.728682 	 0.031008 	 0.007920 
0.736434 	 0.031008 	 0.007890 
0.744186 	 0.031008 	 0.007857 
0.751938 	 0.031008 	 0.007820 
0.759690 	 0.031008 	 0.007780 
0.767442 	 0.031008 	 0.007735 
0.775194 	 0.031008 	 0.007686 
0.782946 	 0.031008 	 0.007633 
0.790698 	 0.031008 	 0.007574 
0.798450 	 0.031008 	 0.007510 
0.806202 	 0.031008 	 0.007440 
0.813953 	 0.031008 	 0.007363 
0.821705 	 0.031008 	 0.007279 
0.829457 	 0.031008 	 0.007188 
0.837209 	 0.031008 	 0.007087 
0.844961 	 0.031008 	 0.006976 
0.852713 	 0.031008 	 0.006853 
0.860465 	 0.031008 	 0.006718 
0.868217 	 0.031008 	 0.006568 
0.875969 	 0.031008 	 0.006401 
0.883721 	 0.031008 	 0.006213 
0.891473 	 0.031008 	 0.006001 
0.899225 	 0.031008 	 0.005761 
0.906977 	 0.031008 	 0.005486 
0.914729 	 0.031008 	 0.005170 
0.922481 	 0.031008 	 0.004805 
0.930233 	 0.031008 	 0.004380 
0.937984 	 0.031008 	 0.003886 
0.945736 	 0.031008 	 0.003315 
0.953488 	 0.031008 	 0.002665 
0.961240 	 0.031008 	 0.001951 
0.968992 	 0.031008 	 0.001214 
0.976744 	 0.031008 	 0.000545 
0.984496 	 0.031008 	 0.000086 
0.992248 	 0.031008 	 -0.000035 
0.000000 	 0.038760 	 0.000000 
0.007752 	 0.038760 	 0.000066 
0.015504 	 0.038760 	 0.000184 
0.023256 	 0.038760 	 0.000398 
0.031008 	 0.038760 	 0.000701 
0.038760 	 0.038760 	 0.001068 
0.046512 	 0.038760 	 0.001471 
0.054264 	 0.038760 	 0.001889 
0.062016 	 0.038760 	 0.002305 
0.069767 	 0.038760 	 0.002711 
0.077519 	 0.038760 	 0.003101 
0.085271 	 0.038760 	 0.003472 
0.093023 	 0.038760 	 0.003824 
0.100775 	 0.038760 	 0.004156 
0.108527 	 0.038760 	 0.004470 
0.116279 	 0.038760 	 0.004765 
0.124031 	 0.038760 	 0.005044 
0.131783 	 0.038760 	 0.005307 
0.139535 	 0.038760 	 0.005555 
0.147287 	 0.038760 	 0.005789 
0.155039 	 0.038760 	 0.006011 
0.162791 	 0.038760 	 0.006221 
0.170543 	 0.038760 	 0.006419 
0.178295 	 0.038760 	 0.006606 
0.186047 	 0.038760 	 0.006784 
0.193798 	 0.038760 	 0.006952 
0.201550 	 0.038760 	 0.007112 
0.209302 	 0.038760 	 0.007263 
0.217054 	 0.038760 	 0.007407 
0.224806 	 0.038760 	 0.007542 
0.232558 	 0.038760 	 0.007671 
0.240310 	 0.038760 	 0.007793 
0.248062 	 0.038760 	 0.007909 
0.255814 	 0.038760 	 0.008019 
0.263566 	 0.038760 	 0.008123 
0.271318 	 0.038760 	 0.008222 
0.279070 	 0.038760 	 0.008316 
0.286822 	 0.038760 	 0.008404 
0.294574 	 0.038760 	 0.008489 
0.302326 	 0.038760 	 0.008568 
0.310078 	 0.038760 	 0.008644 
0.317829 	 0.038760 	 0.008715 
0.325581 	 0.038760 	 0.008783 
0.333333 	 0.038760 	 0.008848 
0.341085 	 0.038760 	 0.008908 
0.348837 	 0.038760 	 0.008966 
0.356589 	 0.038760 	 0.009021 
0.364341 	 0.038760 	 0.009073 
0.372093 	 0.038760 	 0.009122 
0.379845 	 0.038760 	 0.009168 
0.387597 	 0.038760 	 0.009212 
0.395349 	 0.038760 	 0.009253 
0.403101 	 0.038760 	 0.009293 
0.410853 	 0.038760 	 0.009330 
0.418605 	 0.038760 	 0.009365 
0.426357 	 0.038760 	 0.009399 
0.434109 	 0.038760 	 0.009430 
0.441860 	 0.038760 	 0.009460 
0.449612 	 0.038760 	 0.009488 
0.457364 	 0.038760 	 0.009515 
0.465116 	 0.038760 	 0.009540 
0.472868 	 0.038760 	 0.009563 
0.480620 	 0.038760 	 0.009586 
0.488372 	 0.038760 	 0.009606 
0.496124 	 0.038760 	 0.009626 
0.503876 	 0.038760 	 0.009644 
0.511628 	 0.038760 	 0.009662 
0.519380 	 0.038760 	 0.009678 
0.527132 	 0.038760 	 0.009692 
0.534884 	 0.038760 	 0.009706 
0.542636 	 0.038760 	 0.009719 
0.550388 	 0.038760 	 0.009730 
0.558140 	 0.038760 	 0.009740 
0.565891 	 0.038760 	 0.009749 
0.573643 	 0.038760 	 0.009757 
0.581395 	 0.038760 	 0.009763 
0.589147 	 0.038760 	 0.009769 
0.596899 	 0.038760 	 0.009773 
0.604651 	 0.038760 	 0.009775 
0.612403 	 0.038760 	 0.009776 
0.620155 	 0.038760 	 0.009776 
0.627907 	 0.038760 	 0.009774 
0.635659 	 0.038760 	 0.009770 
0.643411 	 0.038760 	 0.009764 
0.651163 	 0.038760 	 0.009757 
0.658915 	 0.038760 	 0.009747 
0.666667 	 0.038760 	 0.009736 
0.674419 	 0.038760 	 0.009722 
0.682171 	 0.038760 	 0.009705 
0.689922 	 0.038760 	 0.009686 
0.697674 	 0.038760 	 0.009664 
0.705426 	 0.038760 	 0.009639 
0.713178 	 0.038760 	 0.009611 
0.720930 	 0.038760 	 0.009579 
0.728682 	 0.038760 	 0.009544 
0.736434 	 0.038760 	 0.009504 
0.744186 	 0.038760 	 0.009461 
0.751938 	 0.038760 	 0.009412 
0.759690 	 0.038760 	 0.009359 
0.767442 	 0.038760 	 0.009300 
0.775194 	 0.038760 	 0.009236 
0.782946 	 0.038760 	 0.009165 
0.790698 	 0.038760 	 0.009088 
0.798450 	 0.038760 	 0.009003 
0.806202 	 0.038760 	 0.008910 
0.813953 	 0.038760 	 0.008808 
0.821705 	 0.038760 	 0.008696 
0.829457 	 0.038760 	 0.008574 
0.837209 	 0.038760 	 0.008440 
0.844961 	 0.038760 	 0.008292 
0.852713 	 0.038760 	 0.008130 
0.860465 	 0.038760 	 0.007950 
0.868217 	 0.038760 	 0.007750 
0.875969 	 0.038760 	 0.007527 
0.883721 	 0.038760 	 0.007278 
0.891473 	 0.038760 	 0.006998 
0.899225 	 0.038760 	 0.006681 
0.906977 	 0.038760 	 0.006321 
0.914729 	 0.038760 	 0.005910 
0.922481 	 0.038760 	 0.005439 
0.930233 	 0.038760 	 0.004899 
0.937984 	 0.038760 	 0.004283 
0.945736 	 0.038760 	 0.003586 
0.953488 	 0.038760 	 0.002815 
0.961240 	 0.038760 	 0.001996 
0.968992 	 0.038760 	 0.001186 
0.976744 	 0.038760 	 0.000486 
0.984496 	 0.038760 	 0.000038 
0.992248 	 0.038760 	 -0.000051 
0.000000 	 0.046512 	 0.000000 
0.007752 	 0.046512 	 0.000040 
0.015504 	 0.046512 	 0.000134 
0.023256 	 0.046512 	 0.000327 
0.031008 	 0.046512 	 0.000619 
0.038760 	 0.046512 	 0.000988 
0.046512 	 0.046512 	 0.001405 
0.054264 	 0.046512 	 0.001848 
0.062016 	 0.046512 	 0.002299 
0.069767 	 0.046512 	 0.002746 
0.077519 	 0.046512 	 0.003183 
0.085271 	 0.046512 	 0.003605 
0.093023 	 0.046512 	 0.004010 
0.100775 	 0.046512 	 0.004396 
0.108527 	 0.046512 	 0.004764 
0.116279 	 0.046512 	 0.005114 
0.124031 	 0.046512 	 0.005446 
0.131783 	 0.046512 	 0.005761 
0.139535 	 0.046512 	 0.006061 
0.147287 	 0.046512 	 0.006345 
0.155039 	 0.046512 	 0.006614 
0.162791 	 0.046512 	 0.006870 
0.170543 	 0.046512 	 0.007113 
0.178295 	 0.046512 	 0.007344 
0.186047 	 0.046512 	 0.007563 
0.193798 	 0.046512 	 0.007771 
0.201550 	 0.046512 	 0.007968 
0.209302 	 0.046512 	 0.008156 
0.217054 	 0.046512 	 0.008334 
0.224806 	 0.046512 	 0.008503 
0.232558 	 0.046512 	 0.008664 
0.240310 	 0.046512 	 0.008816 
0.248062 	 0.046512 	 0.008961 
0.255814 	 0.046512 	 0.009098 
0.263566 	 0.046512 	 0.009229 
0.271318 	 0.046512 	 0.009352 
0.279070 	 0.046512 	 0.009470 
0.286822 	 0.046512 	 0.009581 
0.294574 	 0.046512 	 0.009687 
0.302326 	 0.046512 	 0.009787 
0.310078 	 0.046512 	 0.009882 
0.317829 	 0.046512 	 0.009972 
0.325581 	 0.046512 	 0.010058 
0.333333 	 0.046512 	 0.010139 
0.341085 	 0.046512 	 0.010215 
0.348837 	 0.046512 	 0.010288 
0.356589 	 0.046512 	 0.010357 
0.364341 	 0.046512 	 0.010422 
0.372093 	 0.046512 	 0.010484 
0.379845 	 0.046512 	 0.010543 
0.387597 	 0.046512 	 0.010598 
0.395349 	 0.046512 	 0.010650 
0.403101 	 0.046512 	 0.010700 
0.410853 	 0.046512 	 0.010747 
0.418605 	 0.046512 	 0.010792 
0.426357 	 0.046512 	 0.010834 
0.434109 	 0.046512 	 0.010873 
0.441860 	 0.046512 	 0.010911 
0.449612 	 0.046512 	 0.010947 
0.457364 	 0.046512 	 0.010980 
0.465116 	 0.046512 	 0.011012 
0.472868 	 0.046512 	 0.011042 
0.480620 	 0.046512 	 0.011070 
0.488372 	 0.046512 	 0.011097 
0.496124 	 0.046512 	 0.011122 
0.503876 	 0.046512 	 0.011145 
0.511628 	 0.046512 	 0.011167 
0.519380 	 0.046512 	 0.011187 
0.527132 	 0.046512 	 0.011206 
0.534884 	 0.046512 	 0.011223 
0.542636 	 0.046512 	 0.011239 
0.550388 	 0.046512 	 0.011254 
0.558140 	 0.046512 	 0.011267 
0.565891 	 0.046512 	 0.011279 
0.573643 	 0.046512 	 0.011289 
0.581395 	 0.046512 	 0.011298 
0.589147 	 0.046512 	 0.011305 
0.596899 	 0.046512 	 0.011310 
0.604651 	 0.046512 	 0.011314 
0.612403 	 0.046512 	 0.011316 
0.620155 	 0.046512 	 0.011316 
0.627907 	 0.046512 	 0.011314 
0.635659 	 0.046512 	 0.011310 
0.643411 	 0.046512 	 0.011303 
0.651163 	 0.046512 	 0.011295 
0.658915 	 0.046512 	 0.011283 
0.666667 	 0.046512 	 0.011269 
0.674419 	 0.046512 	 0.011252 
0.682171 	 0.046512 	 0.011232 
0.689922 	 0.046512 	 0.011209 
0.697674 	 0.046512 	 0.011182 
0.705426 	 0.046512 	 0.011151 
0.713178 	 0.046512 	 0.011116 
0.720930 	 0.046512 	 0.011077 
0.728682 	 0.046512 	 0.011033 
0.736434 	 0.046512 	 0.010984 
0.744186 	 0.046512 	 0.010929 
0.751938 	 0.046512 	 0.010869 
0.759690 	 0.046512 	 0.010802 
0.767442 	 0.046512 	 0.010729 
0.775194 	 0.046512 	 0.010648 
0.782946 	 0.046512 	 0.010559 
0.790698 	 0.046512 	 0.010462 
0.798450 	 0.046512 	 0.010355 
0.806202 	 0.046512 	 0.010238 
0.813953 	 0.046512 	 0.010110 
0.821705 	 0.046512 	 0.009969 
0.829457 	 0.046512 	 0.009815 
0.837209 	 0.046512 	 0.009646 
0.844961 	 0.046512 	 0.009459 
0.852713 	 0.046512 	 0.009254 
0.860465 	 0.046512 	 0.009027 
0.868217 	 0.046512 	 0.008775 
0.875969 	 0.046512 	 0.008496 
0.883721 	 0.046512 	 0.008183 
0.891473 	 0.046512 	 0.007832 
0.899225 	 0.046512 	 0.007438 
0.906977 	 0.046512 	 0.006992 
0.914729 	 0.046512 	 0.006487 
0.922481 	 0.046512 	 0.005915 
0.930233 	 0.046512 	 0.005268 
0.937984 	 0.046512 	 0.004542 
0.945736 	 0.046512 	 0.003739 
0.953488 	 0.046512 	 0.002873 
0.961240 	 0.046512 	 0.001979 
0.968992 	 0.046512 	 0.001126 
0.976744 	 0.046512 	 0.000419 
0.984496 	 0.046512 	 -0.000005 
0.992248 	 0.046512 	 -0.000064 
0.000000 	 0.054264 	 0.000000 
0.007752 	 0.054264 	 0.000017 
0.015504 	 0.054264 	 0.000087 