VARIABLES = "Y", "U"
ZONE T = "BLOCK1", I = 129, F = POINT

 0.000000 	 0.306421 
 0.007752 	 0.286562 
 0.015504 	 0.266963 
 0.023256 	 0.247702 
 0.031008 	 0.228849 
 0.038760 	 0.210461 
 0.046512 	 0.192580 
 0.054264 	 0.175236 
 0.062016 	 0.158442 
 0.069767 	 0.142202 
 0.077519 	 0.126509 
 0.085271 	 0.111350 
 0.093023 	 0.096702 
 0.100775 	 0.082541 
 0.108527 	 0.068841 
 0.116279 	 0.055573 
 0.124031 	 0.042709 
 0.131783 	 0.030225 
 0.139535 	 0.018094 
 0.147287 	 0.006295 
 0.155039 	 -0.005191 
 0.162791 	 -0.016380 
 0.170543 	 -0.027288 
 0.178295 	 -0.037925 
 0.186047 	 -0.048299 
 0.193798 	 -0.058418 
 0.201550 	 -0.068285 
 0.209302 	 -0.077905 
 0.217054 	 -0.087278 
 0.224806 	 -0.096406 
 0.232558 	 -0.105289 
 0.240310 	 -0.113928 
 0.248062 	 -0.122322 
 0.255814 	 -0.130473 
 0.263566 	 -0.138381 
 0.271318 	 -0.146050 
 0.279070 	 -0.153482 
 0.286822 	 -0.160680 
 0.294574 	 -0.167649 
 0.302326 	 -0.174395 
 0.310078 	 -0.180920 
 0.317829 	 -0.187229 
 0.325581 	 -0.193325 
 0.333333 	 -0.199209 
 0.341085 	 -0.204878 
 0.348837 	 -0.210328 
 0.356589 	 -0.215550 
 0.364341 	 -0.220532 
 0.372093 	 -0.225256 
 0.379845 	 -0.229700 
 0.387597 	 -0.233838 
 0.395349 	 -0.237639 
 0.403101 	 -0.241068 
 0.410853 	 -0.244090 
 0.418605 	 -0.246664 
 0.426357 	 -0.248752 
 0.434109 	 -0.250315 
 0.441860 	 -0.251316 
 0.449612 	 -0.251720 
 0.457364 	 -0.251500 
 0.465116 	 -0.250629 
 0.472868 	 -0.249092 
 0.480620 	 -0.246877 
 0.488372 	 -0.243981 
 0.496124 	 -0.240406 
 0.503876 	 -0.236165 
 0.511628 	 -0.231275 
 0.519380 	 -0.225761 
 0.527132 	 -0.219652 
 0.534884 	 -0.212981 
 0.542636 	 -0.205789 
 0.550388 	 -0.198114 
 0.558140 	 -0.190001 
 0.565891 	 -0.181491 
 0.573643 	 -0.172629 
 0.581395 	 -0.163456 
 0.589147 	 -0.154014 
 0.596899 	 -0.144342 
 0.604651 	 -0.134476 
 0.612403 	 -0.124450 
 0.620155 	 -0.114295 
 0.627907 	 -0.104039 
 0.635659 	 -0.093706 
 0.643411 	 -0.083320 
 0.651163 	 -0.072900 
 0.658915 	 -0.062463 
 0.666667 	 -0.052025 
 0.674419 	 -0.041598 
 0.682171 	 -0.031195 
 0.689922 	 -0.020827 
 0.697674 	 -0.010501 
 0.705426 	 -0.000228 
 0.713178 	 0.009986 
 0.720930 	 0.020133 
 0.728682 	 0.030205 
 0.736434 	 0.040198 
 0.744186 	 0.050103 
 0.751938 	 0.059917 
 0.759690 	 0.069633 
 0.767442 	 0.079249 
 0.775194 	 0.088761 
 0.782946 	 0.098170 
 0.790698 	 0.107478 
 0.798450 	 0.116693 
 0.806202 	 0.125826 
 0.813953 	 0.134900 
 0.821705 	 0.143944 
 0.829457 	 0.153001 
 0.837209 	 0.162130 
 0.844961 	 0.171412 
 0.852713 	 0.180950 
 0.860465 	 0.190876 
 0.868217 	 0.201356 
 0.875969 	 0.212589 
 0.883721 	 0.224817 
 0.891473 	 0.238316 
 0.899225 	 0.253398 
 0.906977 	 0.270401 
 0.914729 	 0.289675 
 0.922481 	 0.311560 
 0.930233 	 0.336361 
 0.937984 	 0.364310 
 0.945736 	 0.395527 
 0.953488 	 0.429971 
 0.961240 	 0.467400 
 0.968992 	 0.507327 
 0.976744 	 0.549003 
 0.984496 	 0.591413 
 0.992248 	 0.633322 
