VARIABLES = "X", "V"
ZONE T = "BLOCK1", I = 129, F = POINT

 0.000000 	 0.003635 
 0.007752 	 0.010295 
 0.015504 	 0.016379 
 0.023256 	 0.021929 
 0.031008 	 0.026992 
 0.038760 	 0.031615 
 0.046512 	 0.035850 
 0.054264 	 0.039745 
 0.062016 	 0.043346 
 0.069767 	 0.046698 
 0.077519 	 0.049841 
 0.085271 	 0.052809 
 0.093023 	 0.055634 
 0.100775 	 0.058340 
 0.108527 	 0.060948 
 0.116279 	 0.063474 
 0.124031 	 0.065927 
 0.131783 	 0.068317 
 0.139535 	 0.070645 
 0.147287 	 0.072913 
 0.155039 	 0.075120 
 0.162791 	 0.077261 
 0.170543 	 0.079333 
 0.178295 	 0.081329 
 0.186047 	 0.083243 
 0.193798 	 0.085069 
 0.201550 	 0.086800 
 0.209302 	 0.088429 
 0.217054 	 0.089949 
 0.224806 	 0.091355 
 0.232558 	 0.092641 
 0.240310 	 0.093800 
 0.248062 	 0.094828 
 0.255814 	 0.095718 
 0.263566 	 0.096467 
 0.271318 	 0.097070 
 0.279070 	 0.097521 
 0.286822 	 0.097819 
 0.294574 	 0.097958 
 0.302326 	 0.097936 
 0.310078 	 0.097750 
 0.317829 	 0.097396 
 0.325581 	 0.096873 
 0.333333 	 0.096178 
 0.341085 	 0.095310 
 0.348837 	 0.094267 
 0.356589 	 0.093048 
 0.364341 	 0.091653 
 0.372093 	 0.090081 
 0.379845 	 0.088332 
 0.387597 	 0.086406 
 0.395349 	 0.084304 
 0.403101 	 0.082028 
 0.410853 	 0.079578 
 0.418605 	 0.076956 
 0.426357 	 0.074165 
 0.434109 	 0.071206 
 0.441860 	 0.068082 
 0.449612 	 0.064797 
 0.457364 	 0.061352 
 0.465116 	 0.057751 
 0.472868 	 0.053998 
 0.480620 	 0.050096 
 0.488372 	 0.046049 
 0.496124 	 0.041861 
 0.503876 	 0.037536 
 0.511628 	 0.033078 
 0.519380 	 0.028491 
 0.527132 	 0.023779 
 0.534884 	 0.018946 
 0.542636 	 0.013996 
 0.550388 	 0.008935 
 0.558140 	 0.003765 
 0.565891 	 -0.001508 
 0.573643 	 -0.006881 
 0.581395 	 -0.012347 
 0.589147 	 -0.017902 
 0.596899 	 -0.023542 
 0.604651 	 -0.029259 
 0.612403 	 -0.035048 
 0.620155 	 -0.040901 
 0.627907 	 -0.046811 
 0.635659 	 -0.052769 
 0.643411 	 -0.058764 
 0.651163 	 -0.064785 
 0.658915 	 -0.070818 
 0.666667 	 -0.076849 
 0.674419 	 -0.082860 
 0.682171 	 -0.088830 
 0.689922 	 -0.094739 
 0.697674 	 -0.100560 
 0.705426 	 -0.106266 
 0.713178 	 -0.111824 
 0.720930 	 -0.117199 
 0.728682 	 -0.122352 
 0.736434 	 -0.127243 
 0.744186 	 -0.131825 
 0.751938 	 -0.136051 
 0.759690 	 -0.139869 
 0.767442 	 -0.143226 
 0.775194 	 -0.146070 
 0.782946 	 -0.148345 
 0.790698 	 -0.149999 
 0.798450 	 -0.150981 
 0.806202 	 -0.151245 
 0.813953 	 -0.150748 
 0.821705 	 -0.149457 
 0.829457 	 -0.147348 
 0.837209 	 -0.144406 
 0.844961 	 -0.140629 
 0.852713 	 -0.136028 
 0.860465 	 -0.130630 
 0.868217 	 -0.124477 
 0.875969 	 -0.117623 
 0.883721 	 -0.110142 
 0.891473 	 -0.102117 
 0.899225 	 -0.093647 
 0.906977 	 -0.084840 
 0.914729 	 -0.075814 
 0.922481 	 -0.066694 
 0.930233 	 -0.057608 
 0.937984 	 -0.048687 
 0.945736 	 -0.040062 
 0.953488 	 -0.031862 
 0.961240 	 -0.024214 
 0.968992 	 -0.017242 
 0.976744 	 -0.011065 
 0.984496 	 -0.005798 
 0.992248 	 -0.001555 
