VARIABLES ="X", "Y", "U", "V"
ZONE T = "BLOCK1", I = 129, J = 129, F = POINT

0.000000 	 0.000000 	 0.000000 	 0.000000 
0.007752 	 0.000000 	 0.012839 	 0.000000 
0.015504 	 0.000000 	 0.044138 	 0.000000 
0.023256 	 0.000000 	 0.080068 	 0.000000 
0.031008 	 0.000000 	 0.112557 	 0.000000 
0.038760 	 0.000000 	 0.139346 	 0.000000 
0.046512 	 0.000000 	 0.160759 	 0.000000 
0.054264 	 0.000000 	 0.177829 	 0.000000 
0.062016 	 0.000000 	 0.191575 	 0.000000 
0.069767 	 0.000000 	 0.202817 	 0.000000 
0.077519 	 0.000000 	 0.212167 	 0.000000 
0.085271 	 0.000000 	 0.220074 	 0.000000 
0.093023 	 0.000000 	 0.226862 	 0.000000 
0.100775 	 0.000000 	 0.232771 	 0.000000 
0.108527 	 0.000000 	 0.237979 	 0.000000 
0.116279 	 0.000000 	 0.242616 	 0.000000 
0.124031 	 0.000000 	 0.246786 	 0.000000 
0.131783 	 0.000000 	 0.250565 	 0.000000 
0.139535 	 0.000000 	 0.254015 	 0.000000 
0.147287 	 0.000000 	 0.257183 	 0.000000 
0.155039 	 0.000000 	 0.260108 	 0.000000 
0.162791 	 0.000000 	 0.262821 	 0.000000 
0.170543 	 0.000000 	 0.265348 	 0.000000 
0.178295 	 0.000000 	 0.267709 	 0.000000 
0.186047 	 0.000000 	 0.269922 	 0.000000 
0.193798 	 0.000000 	 0.272001 	 0.000000 
0.201550 	 0.000000 	 0.273960 	 0.000000 
0.209302 	 0.000000 	 0.275808 	 0.000000 
0.217054 	 0.000000 	 0.277555 	 0.000000 
0.224806 	 0.000000 	 0.279210 	 0.000000 
0.232558 	 0.000000 	 0.280778 	 0.000000 
0.240310 	 0.000000 	 0.282267 	 0.000000 
0.248062 	 0.000000 	 0.283683 	 0.000000 
0.255814 	 0.000000 	 0.285029 	 0.000000 
0.263566 	 0.000000 	 0.286311 	 0.000000 
0.271318 	 0.000000 	 0.287532 	 0.000000 
0.279070 	 0.000000 	 0.288696 	 0.000000 
0.286822 	 0.000000 	 0.289807 	 0.000000 
0.294574 	 0.000000 	 0.290867 	 0.000000 
0.302326 	 0.000000 	 0.291879 	 0.000000 
0.310078 	 0.000000 	 0.292846 	 0.000000 
0.317829 	 0.000000 	 0.293770 	 0.000000 
0.325581 	 0.000000 	 0.294653 	 0.000000 
0.333333 	 0.000000 	 0.295497 	 0.000000 
0.341085 	 0.000000 	 0.296304 	 0.000000 
0.348837 	 0.000000 	 0.297075 	 0.000000 
0.356589 	 0.000000 	 0.297812 	 0.000000 
0.364341 	 0.000000 	 0.298516 	 0.000000 
0.372093 	 0.000000 	 0.299189 	 0.000000 
0.379845 	 0.000000 	 0.299832 	 0.000000 
0.387597 	 0.000000 	 0.300445 	 0.000000 
0.395349 	 0.000000 	 0.301031 	 0.000000 
0.403101 	 0.000000 	 0.301589 	 0.000000 
0.410853 	 0.000000 	 0.302121 	 0.000000 
0.418605 	 0.000000 	 0.302627 	 0.000000 
0.426357 	 0.000000 	 0.303108 	 0.000000 
0.434109 	 0.000000 	 0.303566 	 0.000000 
0.441860 	 0.000000 	 0.304000 	 0.000000 
0.449612 	 0.000000 	 0.304410 	 0.000000 
0.457364 	 0.000000 	 0.304799 	 0.000000 
0.465116 	 0.000000 	 0.305166 	 0.000000 
0.472868 	 0.000000 	 0.305511 	 0.000000 
0.480620 	 0.000000 	 0.305835 	 0.000000 
0.488372 	 0.000000 	 0.306138 	 0.000000 
0.496124 	 0.000000 	 0.306421 	 0.000000 
0.503876 	 0.000000 	 0.306684 	 0.000000 
0.511628 	 0.000000 	 0.306927 	 0.000000 
0.519380 	 0.000000 	 0.307150 	 0.000000 
0.527132 	 0.000000 	 0.307353 	 0.000000 
0.534884 	 0.000000 	 0.307537 	 0.000000 
0.542636 	 0.000000 	 0.307701 	 0.000000 
0.550388 	 0.000000 	 0.307846 	 0.000000 
0.558140 	 0.000000 	 0.307971 	 0.000000 
0.565891 	 0.000000 	 0.308076 	 0.000000 
0.573643 	 0.000000 	 0.308162 	 0.000000 
0.581395 	 0.000000 	 0.308227 	 0.000000 
0.589147 	 0.000000 	 0.308272 	 0.000000 
0.596899 	 0.000000 	 0.308296 	 0.000000 
0.604651 	 0.000000 	 0.308299 	 0.000000 
0.612403 	 0.000000 	 0.308281 	 0.000000 
0.620155 	 0.000000 	 0.308239 	 0.000000 
0.627907 	 0.000000 	 0.308175 	 0.000000 
0.635659 	 0.000000 	 0.308087 	 0.000000 
0.643411 	 0.000000 	 0.307975 	 0.000000 
0.651163 	 0.000000 	 0.307837 	 0.000000 
0.658915 	 0.000000 	 0.307672 	 0.000000 
0.666667 	 0.000000 	 0.307480 	 0.000000 
0.674419 	 0.000000 	 0.307258 	 0.000000 
0.682171 	 0.000000 	 0.307006 	 0.000000 
0.689922 	 0.000000 	 0.306722 	 0.000000 
0.697674 	 0.000000 	 0.306405 	 0.000000 
0.705426 	 0.000000 	 0.306052 	 0.000000 
0.713178 	 0.000000 	 0.305662 	 0.000000 
0.720930 	 0.000000 	 0.305232 	 0.000000 
0.728682 	 0.000000 	 0.304760 	 0.000000 
0.736434 	 0.000000 	 0.304244 	 0.000000 
0.744186 	 0.000000 	 0.303681 	 0.000000 
0.751938 	 0.000000 	 0.303067 	 0.000000 
0.759690 	 0.000000 	 0.302400 	 0.000000 
0.767442 	 0.000000 	 0.301675 	 0.000000 
0.775194 	 0.000000 	 0.300890 	 0.000000 
0.782946 	 0.000000 	 0.300038 	 0.000000 
0.790698 	 0.000000 	 0.299115 	 0.000000 
0.798450 	 0.000000 	 0.298116 	 0.000000 
0.806202 	 0.000000 	 0.297034 	 0.000000 
0.813953 	 0.000000 	 0.295861 	 0.000000 
0.821705 	 0.000000 	 0.294590 	 0.000000 
0.829457 	 0.000000 	 0.293210 	 0.000000 
0.837209 	 0.000000 	 0.291709 	 0.000000 
0.844961 	 0.000000 	 0.290074 	 0.000000 
0.852713 	 0.000000 	 0.288288 	 0.000000 
0.860465 	 0.000000 	 0.286330 	 0.000000 
0.868217 	 0.000000 	 0.284177 	 0.000000 
0.875969 	 0.000000 	 0.281795 	 0.000000 
0.883721 	 0.000000 	 0.279145 	 0.000000 
0.891473 	 0.000000 	 0.276176 	 0.000000 
0.899225 	 0.000000 	 0.272820 	 0.000000 
0.906977 	 0.000000 	 0.268988 	 0.000000 
0.914729 	 0.000000 	 0.264558 	 0.000000 
0.922481 	 0.000000 	 0.259360 	 0.000000 
0.930233 	 0.000000 	 0.253155 	 0.000000 
0.937984 	 0.000000 	 0.245597 	 0.000000 
0.945736 	 0.000000 	 0.236164 	 0.000000 
0.953488 	 0.000000 	 0.224058 	 0.000000 
0.961240 	 0.000000 	 0.208020 	 0.000000 
0.968992 	 0.000000 	 0.186050 	 0.000000 
0.976744 	 0.000000 	 0.155091 	 0.000000 
0.984496 	 0.000000 	 0.111291 	 0.000000 
0.992248 	 0.000000 	 0.053543 	 0.000000 
0.000000 	 0.007752 	 0.000000 	 -0.012840 
0.007752 	 0.007752 	 0.006996 	 -0.031301 
0.015504 	 0.007752 	 0.018874 	 -0.035931 
0.023256 	 0.007752 	 0.035215 	 -0.032491 
0.031008 	 0.007752 	 0.054419 	 -0.026790 
0.038760 	 0.007752 	 0.074203 	 -0.021415 
0.046512 	 0.007752 	 0.092990 	 -0.017071 
0.054264 	 0.007752 	 0.110048 	 -0.013748 
0.062016 	 0.007752 	 0.125205 	 -0.011243 
0.069767 	 0.007752 	 0.138563 	 -0.009352 
0.077519 	 0.007752 	 0.150330 	 -0.007908 
0.085271 	 0.007752 	 0.160733 	 -0.006790 
0.093023 	 0.007752 	 0.169982 	 -0.005911 
0.100775 	 0.007752 	 0.178260 	 -0.005209 
0.108527 	 0.007752 	 0.185718 	 -0.004639 
0.116279 	 0.007752 	 0.192479 	 -0.004171 
0.124031 	 0.007752 	 0.198644 	 -0.003781 
0.131783 	 0.007752 	 0.204295 	 -0.003451 
0.139535 	 0.007752 	 0.209499 	 -0.003170 
0.147287 	 0.007752 	 0.214311 	 -0.002926 
0.155039 	 0.007752 	 0.218778 	 -0.002714 
0.162791 	 0.007752 	 0.222936 	 -0.002528 
0.170543 	 0.007752 	 0.226817 	 -0.002362 
0.178295 	 0.007752 	 0.230448 	 -0.002214 
0.186047 	 0.007752 	 0.233853 	 -0.002080 
0.193798 	 0.007752 	 0.237050 	 -0.001959 
0.201550 	 0.007752 	 0.240057 	 -0.001849 
0.209302 	 0.007752 	 0.242889 	 -0.001748 
0.217054 	 0.007752 	 0.245558 	 -0.001655 
0.224806 	 0.007752 	 0.248078 	 -0.001569 
0.232558 	 0.007752 	 0.250457 	 -0.001490 
0.240310 	 0.007752 	 0.252706 	 -0.001416 
0.248062 	 0.007752 	 0.254832 	 -0.001347 
0.255814 	 0.007752 	 0.256845 	 -0.001282 
0.263566 	 0.007752 	 0.258750 	 -0.001222 
0.271318 	 0.007752 	 0.260555 	 -0.001165 
0.279070 	 0.007752 	 0.262265 	 -0.001111 
0.286822 	 0.007752 	 0.263886 	 -0.001061 
0.294574 	 0.007752 	 0.265423 	 -0.001013 
0.302326 	 0.007752 	 0.266880 	 -0.000967 
0.310078 	 0.007752 	 0.268263 	 -0.000924 
0.317829 	 0.007752 	 0.269575 	 -0.000883 
0.325581 	 0.007752 	 0.270819 	 -0.000844 
0.333333 	 0.007752 	 0.272001 	 -0.000807 
0.341085 	 0.007752 	 0.273122 	 -0.000771 
0.348837 	 0.007752 	 0.274187 	 -0.000737 
0.356589 	 0.007752 	 0.275198 	 -0.000704 
0.364341 	 0.007752 	 0.276157 	 -0.000673 
0.372093 	 0.007752 	 0.277068 	 -0.000643 
0.379845 	 0.007752 	 0.277932 	 -0.000613 
0.387597 	 0.007752 	 0.278753 	 -0.000585 
0.395349 	 0.007752 	 0.279531 	 -0.000558 
0.403101 	 0.007752 	 0.280270 	 -0.000532 
0.410853 	 0.007752 	 0.280970 	 -0.000506 
0.418605 	 0.007752 	 0.281634 	 -0.000481 
0.426357 	 0.007752 	 0.282263 	 -0.000457 
0.434109 	 0.007752 	 0.282858 	 -0.000433 
0.441860 	 0.007752 	 0.283422 	 -0.000411 
0.449612 	 0.007752 	 0.283955 	 -0.000388 
0.457364 	 0.007752 	 0.284458 	 -0.000366 
0.465116 	 0.007752 	 0.284933 	 -0.000345 
0.472868 	 0.007752 	 0.285380 	 -0.000323 
0.480620 	 0.007752 	 0.285800 	 -0.000303 
0.488372 	 0.007752 	 0.286194 	 -0.000282 
0.496124 	 0.007752 	 0.286562 	 -0.000262 
0.503876 	 0.007752 	 0.286906 	 -0.000242 
0.511628 	 0.007752 	 0.287226 	 -0.000222 
0.519380 	 0.007752 	 0.287521 	 -0.000203 
0.527132 	 0.007752 	 0.287792 	 -0.000183 
0.534884 	 0.007752 	 0.288040 	 -0.000163 
0.542636 	 0.007752 	 0.288265 	 -0.000144 
0.550388 	 0.007752 	 0.288465 	 -0.000124 
0.558140 	 0.007752 	 0.288642 	 -0.000104 
0.565891 	 0.007752 	 0.288795 	 -0.000085 
0.573643 	 0.007752 	 0.288923 	 -0.000064 
0.581395 	 0.007752 	 0.289026 	 -0.000044 
0.589147 	 0.007752 	 0.289103 	 -0.000023 
0.596899 	 0.007752 	 0.289154 	 -0.000002 
0.604651 	 0.007752 	 0.289178 	 0.000020 
0.612403 	 0.007752 	 0.289174 	 0.000042 
0.620155 	 0.007752 	 0.289140 	 0.000065 
0.627907 	 0.007752 	 0.289075 	 0.000089 
0.635659 	 0.007752 	 0.288978 	 0.000114 
0.643411 	 0.007752 	 0.288848 	 0.000139 
0.651163 	 0.007752 	 0.288682 	 0.000166 
0.658915 	 0.007752 	 0.288478 	 0.000194 
0.666667 	 0.007752 	 0.288235 	 0.000223 
0.674419 	 0.007752 	 0.287950 	 0.000253 
0.682171 	 0.007752 	 0.287621 	 0.000285 
0.689922 	 0.007752 	 0.287244 	 0.000319 
0.697674 	 0.007752 	 0.286818 	 0.000354 
0.705426 	 0.007752 	 0.286339 	 0.000392 
0.713178 	 0.007752 	 0.285804 	 0.000431 
0.720930 	 0.007752 	 0.285208 	 0.000473 
0.728682 	 0.007752 	 0.284549 	 0.000518 
0.736434 	 0.007752 	 0.283821 	 0.000565 
0.744186 	 0.007752 	 0.283020 	 0.000615 
0.751938 	 0.007752 	 0.282142 	 0.000669 
0.759690 	 0.007752 	 0.281180 	 0.000726 
0.767442 	 0.007752 	 0.280128 	 0.000788 
0.775194 	 0.007752 	 0.278981 	 0.000853 
0.782946 	 0.007752 	 0.277729 	 0.000924 
0.790698 	 0.007752 	 0.276366 	 0.001001 
0.798450 	 0.007752 	 0.274882 	 0.001084 
0.806202 	 0.007752 	 0.273266 	 0.001174 
0.813953 	 0.007752 	 0.271506 	 0.001273 
0.821705 	 0.007752 	 0.269587 	 0.001382 
0.829457 	 0.007752 	 0.267495 	 0.001503 
0.837209 	 0.007752 	 0.265209 	 0.001637 
0.844961 	 0.007752 	 0.262706 	 0.001788 
0.852713 	 0.007752 	 0.259959 	 0.001959 
0.860465 	 0.007752 	 0.256933 	 0.002156 
0.868217 	 0.007752 	 0.253587 	 0.002384 
0.875969 	 0.007752 	 0.249869 	 0.002652 
0.883721 	 0.007752 	 0.245711 	 0.002971 
0.891473 	 0.007752 	 0.241030 	 0.003358 
0.899225 	 0.007752 	 0.235713 	 0.003834 
0.906977 	 0.007752 	 0.229616 	 0.004433 
0.914729 	 0.007752 	 0.222544 	 0.005200 
0.922481 	 0.007752 	 0.214237 	 0.006207 
0.930233 	 0.007752 	 0.204339 	 0.007561 
0.937984 	 0.007752 	 0.192365 	 0.009435 
0.945736 	 0.007752 	 0.177659 	 0.012108 
0.953488 	 0.007752 	 0.159352 	 0.016040 
0.961240 	 0.007752 	 0.136390 	 0.021972 
0.968992 	 0.007752 	 0.107770 	 0.030962 
0.976744 	 0.007752 	 0.073396 	 0.043802 
0.984496 	 0.007752 	 0.036226 	 0.057750 
0.992248 	 0.007752 	 0.006010 	 0.053544 
0.000000 	 0.015504 	 0.000000 	 -0.019837 
0.007752 	 0.015504 	 0.001520 	 -0.043182 
0.015504 	 0.015504 	 0.005160 	 -0.052274 
0.023256 	 0.015504 	 0.011950 	 -0.051696 
0.031008 	 0.015504 	 0.022176 	 -0.046577 
0.038760 	 0.015504 	 0.034895 	 -0.040203 
0.046512 	 0.015504 	 0.048837 	 -0.034131 
0.054264 	 0.015504 	 0.062981 	 -0.028906 
0.062016 	 0.015504 	 0.076680 	 -0.024603 
0.069767 	 0.015504 	 0.089600 	 -0.021120 
0.077519 	 0.015504 	 0.101608 	 -0.018313 
0.085271 	 0.015504 	 0.112688 	 -0.016042 
0.093023 	 0.015504 	 0.122885 	 -0.014191 
0.100775 	 0.015504 	 0.132268 	 -0.012668 
0.108527 	 0.015504 	 0.140916 	 -0.011402 
0.116279 	 0.015504 	 0.148902 	 -0.010337 
0.124031 	 0.015504 	 0.156298 	 -0.009433 
0.131783 	 0.015504 	 0.163164 	 -0.008657 
0.139535 	 0.015504 	 0.169555 	 -0.007984 
0.147287 	 0.015504 	 0.175517 	 -0.007394 
0.155039 	 0.015504 	 0.181092 	 -0.006874 
0.162791 	 0.015504 	 0.186313 	 -0.006410 
0.170543 	 0.015504 	 0.191212 	 -0.005995 
0.178295 	 0.015504 	 0.195815 	 -0.005620 
0.186047 	 0.015504 	 0.200146 	 -0.005279 
0.193798 	 0.015504 	 0.204224 	 -0.004967 
0.201550 	 0.015504 	 0.208068 	 -0.004682 
0.209302 	 0.015504 	 0.211695 	 -0.004419 
0.217054 	 0.015504 	 0.215118 	 -0.004175 
0.224806 	 0.015504 	 0.218351 	 -0.003950 
0.232558 	 0.015504 	 0.221406 	 -0.003740 
0.240310 	 0.015504 	 0.224294 	 -0.003543 
0.248062 	 0.015504 	 0.227024 	 -0.003360 
0.255814 	 0.015504 	 0.229607 	 -0.003188 
0.263566 	 0.015504 	 0.232050 	 -0.003027 
0.271318 	 0.015504 	 0.234362 	 -0.002875 
0.279070 	 0.015504 	 0.236551 	 -0.002733 
0.286822 	 0.015504 	 0.238622 	 -0.002598 
0.294574 	 0.015504 	 0.240582 	 -0.002471 
0.302326 	 0.015504 	 0.242438 	 -0.002350 
0.310078 	 0.015504 	 0.244195 	 -0.002236 
0.317829 	 0.015504 	 0.245859 	 -0.002128 
0.325581 	 0.015504 	 0.247434 	 -0.002026 
0.333333 	 0.015504 	 0.248925 	 -0.001929 
0.341085 	 0.015504 	 0.250338 	 -0.001836 
0.348837 	 0.015504 	 0.251675 	 -0.001748 
0.356589 	 0.015504 	 0.252941 	 -0.001664 
0.364341 	 0.015504 	 0.254140 	 -0.001584 
0.372093 	 0.015504 	 0.255276 	 -0.001507 
0.379845 	 0.015504 	 0.256351 	 -0.001434 
0.387597 	 0.015504 	 0.257368 	 -0.001364 
0.395349 	 0.015504 	 0.258332 	 -0.001296 
0.403101 	 0.015504 	 0.259244 	 -0.001232 
0.410853 	 0.015504 	 0.260107 	 -0.001170 
0.418605 	 0.015504 	 0.260923 	 -0.001110 
0.426357 	 0.015504 	 0.261696 	 -0.001052 
0.434109 	 0.015504 	 0.262426 	 -0.000997 
0.441860 	 0.015504 	 0.263116 	 -0.000943 
0.449612 	 0.015504 	 0.263768 	 -0.000891 
0.457364 	 0.015504 	 0.264384 	 -0.000840 
0.465116 	 0.015504 	 0.264964 	 -0.000791 
0.472868 	 0.015504 	 0.265511 	 -0.000743 
0.480620 	 0.015504 	 0.266026 	 -0.000696 
0.488372 	 0.015504 	 0.266509 	 -0.000650 
0.496124 	 0.015504 	 0.266963 	 -0.000605 
0.503876 	 0.015504 	 0.267387 	 -0.000561 
0.511628 	 0.015504 	 0.267782 	 -0.000517 
0.519380 	 0.015504 	 0.268149 	 -0.000473 
0.527132 	 0.015504 	 0.268489 	 -0.000430 
0.534884 	 0.015504 	 0.268801 	 -0.000387 
0.542636 	 0.015504 	 0.269085 	 -0.000343 
0.550388 	 0.015504 	 0.269343 	 -0.000300 
0.558140 	 0.015504 	 0.269573 	 -0.000256 
0.565891 	 0.015504 	 0.269775 	 -0.000212 
0.573643 	 0.015504 	 0.269949 	 -0.000166 
0.581395 	 0.015504 	 0.270093 	 -0.000120 
0.589147 	 0.015504 	 0.270208 	 -0.000073 
0.596899 	 0.015504 	 0.270292 	 -0.000024 
0.604651 	 0.015504 	 0.270344 	 0.000026 
0.612403 	 0.015504 	 0.270362 	 0.000078 
0.620155 	 0.015504 	 0.270346 	 0.000131 
0.627907 	 0.015504 	 0.270292 	 0.000187 
0.635659 	 0.015504 	 0.270200 	 0.000246 
0.643411 	 0.015504 	 0.270067 	 0.000307 
0.651163 	 0.015504 	 0.269890 	 0.000371 
0.658915 	 0.015504 	 0.269668 	 0.000438 
0.666667 	 0.015504 	 0.269397 	 0.000509 
0.674419 	 0.015504 	 0.269074 	 0.000584 
0.682171 	 0.015504 	 0.268695 	 0.000663 
0.689922 	 0.015504 	 0.268258 	 0.000747 
0.697674 	 0.015504 	 0.267759 	 0.000835 
0.705426 	 0.015504 	 0.267192 	 0.000929 
0.713178 	 0.015504 	 0.266554 	 0.001029 
0.720930 	 0.015504 	 0.265839 	 0.001135 
0.728682 	 0.015504 	 0.265043 	 0.001247 
0.736434 	 0.015504 	 0.264160 	 0.001367 
0.744186 	 0.015504 	 0.263183 	 0.001496 
0.751938 	 0.015504 	 0.262105 	 0.001633 
0.759690 	 0.015504 	 0.260920 	 0.001780 
0.767442 	 0.015504 	 0.259619 	 0.001937 
0.775194 	 0.015504 	 0.258194 	 0.002107 
0.782946 	 0.015504 	 0.256634 	 0.002290 
0.790698 	 0.015504 	 0.254928 	 0.002487 
0.798450 	 0.015504 	 0.253065 	 0.002702 
0.806202 	 0.015504 	 0.251029 	 0.002937 
0.813953 	 0.015504 	 0.248806 	 0.003194 
0.821705 	 0.015504 	 0.246376 	 0.003477 
0.829457 	 0.015504 	 0.243718 	 0.003791 
0.837209 	 0.015504 	 0.240807 	 0.004142 
0.844961 	 0.015504 	 0.237611 	 0.004538 
0.852713 	 0.015504 	 0.234096 	 0.004987 
0.860465 	 0.015504 	 0.230215 	 0.005504 
0.868217 	 0.015504 	 0.225916 	 0.006105 
0.875969 	 0.015504 	 0.221130 	 0.006812 
0.883721 	 0.015504 	 0.215773 	 0.007655 
0.891473 	 0.015504 	 0.209737 	 0.008677 
0.899225 	 0.015504 	 0.202886 	 0.009934 
0.906977 	 0.015504 	 0.195045 	 0.011507 
0.914729 	 0.015504 	 0.185988 	 0.013510 
0.922481 	 0.015504 	 0.175426 	 0.016107 
0.930233 	 0.015504 	 0.162995 	 0.019537 
0.937984 	 0.015504 	 0.148249 	 0.024144 
0.945736 	 0.015504 	 0.130678 	 0.030418 
0.953488 	 0.015504 	 0.109801 	 0.039005 
0.961240 	 0.015504 	 0.085396 	 0.050594 
0.968992 	 0.015504 	 0.058037 	 0.065338 
0.976744 	 0.015504 	 0.030044 	 0.080976 
0.984496 	 0.015504 	 0.006631 	 0.087968 
0.992248 	 0.015504 	 -0.004447 	 0.059555 
0.000000 	 0.023256 	 0.000000 	 -0.021359 
0.007752 	 0.023256 	 -0.001006 	 -0.046823 
0.015504 	 0.023256 	 -0.001488 	 -0.059065 
0.023256 	 0.023256 	 0.000146 	 -0.061924 
0.031008 	 0.023256 	 0.004681 	 -0.059297 
0.038760 	 0.023256 	 0.011951 	 -0.054147 
0.046512 	 0.023256 	 0.021254 	 -0.048277 
0.054264 	 0.023256 	 0.031789 	 -0.042608 
0.062016 	 0.023256 	 0.042881 	 -0.037525 
0.069767 	 0.023256 	 0.054051 	 -0.033130 
0.077519 	 0.023256 	 0.064989 	 -0.029395 
0.085271 	 0.023256 	 0.075519 	 -0.026240 
0.093023 	 0.023256 	 0.085549 	 -0.023576 
0.100775 	 0.023256 	 0.095044 	 -0.021317 
0.108527 	 0.023256 	 0.104001 	 -0.019390 
0.116279 	 0.023256 	 0.112436 	 -0.017734 
0.124031 	 0.023256 	 0.120376 	 -0.016301 
0.131783 	 0.023256 	 0.127849 	 -0.015049 
0.139535 	 0.023256 	 0.134887 	 -0.013947 
0.147287 	 0.023256 	 0.141517 	 -0.012970 
0.155039 	 0.023256 	 0.147770 	 -0.012097 
0.162791 	 0.023256 	 0.153669 	 -0.011311 
0.170543 	 0.023256 	 0.159239 	 -0.010599 
0.178295 	 0.023256 	 0.164501 	 -0.009951 
0.186047 	 0.023256 	 0.169475 	 -0.009358 
0.193798 	 0.023256 	 0.174179 	 -0.008813 
0.201550 	 0.023256 	 0.178629 	 -0.008309 
0.209302 	 0.023256 	 0.182840 	 -0.007843 
0.217054 	 0.023256 	 0.186825 	 -0.007409 
0.224806 	 0.023256 	 0.190599 	 -0.007005 
0.232558 	 0.023256 	 0.194172 	 -0.006628 
0.240310 	 0.023256 	 0.197555 	 -0.006275 
0.248062 	 0.023256 	 0.200759 	 -0.005944 
0.255814 	 0.023256 	 0.203793 	 -0.005632 
0.263566 	 0.023256 	 0.206667 	 -0.005340 
0.271318 	 0.023256 	 0.209389 	 -0.005064 
0.279070 	 0.023256 	 0.211966 	 -0.004804 
0.286822 	 0.023256 	 0.214406 	 -0.004559 
0.294574 	 0.023256 	 0.216717 	 -0.004327 
0.302326 	 0.023256 	 0.218905 	 -0.004108 
0.310078 	 0.023256 	 0.220977 	 -0.003900 
0.317829 	 0.023256 	 0.222938 	 -0.003704 
0.325581 	 0.023256 	 0.224795 	 -0.003518 
0.333333 	 0.023256 	 0.226552 	 -0.003341 
0.341085 	 0.023256 	 0.228215 	 -0.003173 
0.348837 	 0.023256 	 0.229789 	 -0.003014 
0.356589 	 0.023256 	 0.231279 	 -0.002863 
0.364341 	 0.023256 	 0.232688 	 -0.002719 
0.372093 	 0.023256 	 0.234022 	 -0.002582 
0.379845 	 0.023256 	 0.235284 	 -0.002451 
0.387597 	 0.023256 	 0.236477 	 -0.002327 
0.395349 	 0.023256 	 0.237606 	 -0.002208 
0.403101 	 0.023256 	 0.238674 	 -0.002094 
0.410853 	 0.023256 	 0.239684 	 -0.001986 
0.418605 	 0.023256 	 0.240639 	 -0.001882 
0.426357 	 0.023256 	 0.241542 	 -0.001782 
0.434109 	 0.023256 	 0.242395 	 -0.001687 
0.441860 	 0.023256 	 0.243202 	 -0.001594 
0.449612 	 0.023256 	 0.243963 	 -0.001506 
0.457364 	 0.023256 	 0.244682 	 -0.001420 
0.465116 	 0.023256 	 0.245361 	 -0.001337 
0.472868 	 0.023256 	 0.246001 	 -0.001257 
0.480620 	 0.023256 	 0.246603 	 -0.001179 
0.488372 	 0.023256 	 0.247170 	 -0.001103 
0.496124 	 0.023256 	 0.247702 	 -0.001028 
0.503876 	 0.023256 	 0.248201 	 -0.000955 
0.511628 	 0.023256 	 0.248667 	 -0.000883 
0.519380 	 0.023256 	 0.249102 	 -0.000812 
0.527132 	 0.023256 	 0.249506 	 -0.000741 
0.534884 	 0.023256 	 0.249879 	 -0.000671 
0.542636 	 0.023256 	 0.250221 	 -0.000600 
0.550388 	 0.023256 	 0.250533 	 -0.000529 
0.558140 	 0.023256 	 0.250815 	 -0.000457 
0.565891 	 0.023256 	 0.251066 	 -0.000384 
0.573643 	 0.023256 	 0.251285 	 -0.000310 
0.581395 	 0.023256 	 0.251471 	 -0.000234 
0.589147 	 0.023256 	 0.251625 	 -0.000156 
0.596899 	 0.023256 	 0.251744 	 -0.000075 
0.604651 	 0.023256 	 0.251827 	 0.000009 
0.612403 	 0.023256 	 0.251873 	 0.000096 
0.620155 	 0.023256 	 0.251879 	 0.000186 
0.627907 	 0.023256 	 0.251844 	 0.000281 
0.635659 	 0.023256 	 0.251765 	 0.000380 
0.643411 	 0.023256 	 0.251639 	 0.000485 
0.651163 	 0.023256 	 0.251465 	 0.000595 
0.658915 	 0.023256 	 0.251237 	 0.000711 
0.666667 	 0.023256 	 0.250954 	 0.000834 
0.674419 	 0.023256 	 0.250611 	 0.000964 
0.682171 	 0.023256 	 0.250204 	 0.001102 
0.689922 	 0.023256 	 0.249729 	 0.001248 
0.697674 	 0.023256 	 0.249182 	 0.001403 
0.705426 	 0.023256 	 0.248556 	 0.001569 
0.713178 	 0.023256 	 0.247847 	 0.001745 
0.720930 	 0.023256 	 0.247048 	 0.001932 
0.728682 	 0.023256 	 0.246154 	 0.002133 
0.736434 	 0.023256 	 0.245157 	 0.002346 
0.744186 	 0.023256 	 0.244049 	 0.002575 
0.751938 	 0.023256 	 0.242824 	 0.002820 
0.759690 	 0.023256 	 0.241471 	 0.003082 
0.767442 	 0.023256 	 0.239980 	 0.003365 
0.775194 	 0.023256 	 0.238342 	 0.003669 
0.782946 	 0.023256 	 0.236544 	 0.003997 
0.790698 	 0.023256 	 0.234573 	 0.004353 
0.798450 	 0.023256 	 0.232415 	 0.004740 
0.806202 	 0.023256 	 0.230051 	 0.005162 
0.813953 	 0.023256 	 0.227463 	 0.005626 
0.821705 	 0.023256 	 0.224629 	 0.006137 
0.829457 	 0.023256 	 0.221524 	 0.006705 
0.837209 	 0.023256 	 0.218116 	 0.007340 
0.844961 	 0.023256 	 0.214370 	 0.008056 
0.852713 	 0.023256 	 0.210244 	 0.008870 
0.860465 	 0.023256 	 0.205685 	 0.009806 
0.868217 	 0.023256 	 0.200631 	 0.010893 
0.875969 	 0.023256 	 0.195005 	 0.012171 
0.883721 	 0.023256 	 0.188713 	 0.013694 
0.891473 	 0.023256 	 0.181636 	 0.015531 
0.899225 	 0.023256 	 0.173630 	 0.017778 
0.906977 	 0.023256 	 0.164514 	 0.020567 
0.914729 	 0.023256 	 0.154073 	 0.024074 
0.922481 	 0.023256 	 0.142047 	 0.028541 
0.930233 	 0.023256 	 0.128151 	 0.034286 
0.937984 	 0.023256 	 0.112096 	 0.041717 
0.945736 	 0.023256 	 0.093681 	 0.051298 
0.953488 	 0.023256 	 0.072948 	 0.063413 
0.961240 	 0.023256 	 0.050494 	 0.077957 
0.968992 	 0.023256 	 0.027915 	 0.093333 
0.976744 	 0.023256 	 0.008262 	 0.104392 
0.984496 	 0.023256 	 -0.004108 	 0.099049 
0.992248 	 0.023256 	 -0.005703 	 0.055109 
0.000000 	 0.031008 	 0.000000 	 -0.020354 
0.007752 	 0.031008 	 -0.001833 	 -0.046343 
0.015504 	 0.031008 	 -0.004237 	 -0.060701 
0.023256 	 0.031008 	 -0.005403 	 -0.066461 
0.031008 	 0.031008 	 -0.004369 	 -0.066569 
0.038760 	 0.031008 	 -0.000911 	 -0.063452 
0.046512 	 0.031008 	 0.004688 	 -0.058813 
0.054264 	 0.031008 	 0.011920 	 -0.053702 
0.062016 	 0.031008 	 0.020255 	 -0.048696 
0.069767 	 0.031008 	 0.029232 	 -0.044071 
0.077519 	 0.031008 	 0.038501 	 -0.039926 
0.085271 	 0.031008 	 0.047809 	 -0.036272 
0.093023 	 0.031008 	 0.056988 	 -0.033072 
0.100775 	 0.031008 	 0.065929 	 -0.030275 
0.108527 	 0.031008 	 0.074567 	 -0.027827 
0.116279 	 0.031008 	 0.082865 	 -0.025676 
0.124031 	 0.031008 	 0.090808 	 -0.023776 
0.131783 	 0.031008 	 0.098392 	 -0.022088 
0.139535 	 0.031008 	 0.105622 	 -0.020580 
0.147287 	 0.031008 	 0.112505 	 -0.019224 
0.155039 	 0.031008 	 0.119055 	 -0.017997 
0.162791 	 0.031008 	 0.125284 	 -0.016882 
0.170543 	 0.031008 	 0.131206 	 -0.015863 
0.178295 	 0.031008 	 0.136835 	 -0.014926 
0.186047 	 0.031008 	 0.142184 	 -0.014063 
0.193798 	 0.031008 	 0.147267 	 -0.013264 
0.201550 	 0.031008 	 0.152095 	 -0.012521 
0.209302 	 0.031008 	 0.156682 	 -0.011830 
0.217054 	 0.031008 	 0.161038 	 -0.011184 
0.224806 	 0.031008 	 0.165175 	 -0.010579 
0.232558 	 0.031008 	 0.169103 	 -0.010012 
0.240310 	 0.031008 	 0.172832 	 -0.009480 
0.248062 	 0.031008 	 0.176371 	 -0.008979 
0.255814 	 0.031008 	 0.179730 	 -0.008507 
0.263566 	 0.031008 	 0.182917 	 -0.008062 
0.271318 	 0.031008 	 0.185939 	 -0.007642 
0.279070 	 0.031008 	 0.188806 	 -0.007245 
0.286822 	 0.031008 	 0.191525 	 -0.006870 
0.294574 	 0.031008 	 0.194102 	 -0.006515 
0.302326 	 0.031008 	 0.196545 	 -0.006180 
0.310078 	 0.031008 	 0.198860 	 -0.005862 
0.317829 	 0.031008 	 0.201054 	 -0.005561 
0.325581 	 0.031008 	 0.203132 	 -0.005275 
0.333333 	 0.031008 	 0.205100 	 -0.005004 
0.341085 	 0.031008 	 0.206963 	 -0.004748 
0.348837 	 0.031008 	 0.208728 	 -0.004504 
0.356589 	 0.031008 	 0.210398 	 -0.004272 
0.364341 	 0.031008 	 0.211979 	 -0.004052 
0.372093 	 0.031008 	 0.213475 	 -0.003843 
0.379845 	 0.031008 	 0.214891 	 -0.003645 
0.387597 	 0.031008 	 0.216231 	 -0.003456 
0.395349 	 0.031008 	 0.217498 	 -0.003276 
0.403101 	 0.031008 	 0.218696 	 -0.003104 
0.410853 	 0.031008 	 0.219830 	 -0.002941 
0.418605 	 0.031008 	 0.220902 	 -0.002784 
0.426357 	 0.031008 	 0.221916 	 -0.002635 
0.434109 	 0.031008 	 0.222875 	 -0.002492 
0.441860 	 0.031008 	 0.223781 	 -0.002356 
0.449612 	 0.031008 	 0.224636 	 -0.002224 
0.457364 	 0.031008 	 0.225445 	 -0.002098 
0.465116 	 0.031008 	 0.226208 	 -0.001976 
0.472868 	 0.031008 	 0.226929 	 -0.001859 
0.480620 	 0.031008 	 0.227608 	 -0.001745 
0.488372 	 0.031008 	 0.228247 	 -0.001634 
0.496124 	 0.031008 	 0.228849 	 -0.001526 
0.503876 	 0.031008 	 0.229414 	 -0.001421 
0.511628 	 0.031008 	 0.229944 	 -0.001317 
0.519380 	 0.031008 	 0.230439 	 -0.001215 
0.527132 	 0.031008 	 0.230900 	 -0.001113 
0.534884 	 0.031008 	 0.231328 	 -0.001012 
0.542636 	 0.031008 	 0.231723 	 -0.000911 
0.550388 	 0.031008 	 0.232085 	 -0.000809 
0.558140 	 0.031008 	 0.232414 	 -0.000707 
0.565891 	 0.031008 	 0.232709 	 -0.000602 
0.573643 	 0.031008 	 0.232971 	 -0.000496 
0.581395 	 0.031008 	 0.233198 	 -0.000386 
0.589147 	 0.031008 	 0.233389 	 -0.000274 
0.596899 	 0.031008 	 0.233542 	 -0.000157 
0.604651 	 0.031008 	 0.233657 	 -0.000036 
0.612403 	 0.031008 	 0.233732 	 0.000091 
0.620155 	 0.031008 	 0.233764 	 0.000223 
0.627907 	 0.031008 	 0.233750 	 0.000361 
0.635659 	 0.031008 	 0.233690 	 0.000507 
0.643411 	 0.031008 	 0.233578 	 0.000661 
0.651163 	 0.031008 	 0.233412 	 0.000824 
0.658915 	 0.031008 	 0.233189 	 0.000996 
0.666667 	 0.031008 	 0.232905 	 0.001178 
0.674419 	 0.031008 	 0.232554 	 0.001372 
0.682171 	 0.031008 	 0.232134 	 0.001578 
0.689922 	 0.031008 	 0.231637 	 0.001797 
0.697674 	 0.031008 	 0.231061 	 0.002031 
0.705426 	 0.031008 	 0.230397 	 0.002280 
0.713178 	 0.031008 	 0.229641 	 0.002545 
0.720930 	 0.031008 	 0.228784 	 0.002829 
0.728682 	 0.031008 	 0.227821 	 0.003131 
0.736434 	 0.031008 	 0.226743 	 0.003455 
0.744186 	 0.031008 	 0.225541 	 0.003803 
0.751938 	 0.031008 	 0.224206 	 0.004175 
0.759690 	 0.031008 	 0.222727 	 0.004574 
0.767442 	 0.031008 	 0.221095 	 0.005005 
0.775194 	 0.031008 	 0.219295 	 0.005468 
0.782946 	 0.031008 	 0.217316 	 0.005970 
0.790698 	 0.031008 	 0.215141 	 0.006514 
0.798450 	 0.031008 	 0.212754 	 0.007105 
0.806202 	 0.031008 	 0.210135 	 0.007752 
0.813953 	 0.031008 	 0.207263 	 0.008462 
0.821705 	 0.031008 	 0.204114 	 0.009245 
0.829457 	 0.031008 	 0.200657 	 0.010115 
0.837209 	 0.031008 	 0.196860 	 0.011088 
0.844961 	 0.031008 	 0.192683 	 0.012184 
0.852713 	 0.031008 	 0.188079 	 0.013431 
0.860465 	 0.031008 	 0.182992 	 0.014862 
0.868217 	 0.031008 	 0.177356 	 0.016521 
0.875969 	 0.031008 	 0.171090 	 0.018466 
0.883721 	 0.031008 	 0.164096 	 0.020773 
0.891473 	 0.031008 	 0.156259 	 0.023539 
0.899225 	 0.031008 	 0.147442 	 0.026896 
0.906977 	 0.031008 	 0.137483 	 0.031011 
0.914729 	 0.031008 	 0.126205 	 0.036102 
0.922481 	 0.031008 	 0.113425 	 0.042440 
0.930233 	 0.031008 	 0.098984 	 0.050343 
0.937984 	 0.031008 	 0.082810 	 0.060135 
0.945736 	 0.031008 	 0.065025 	 0.072033 
0.953488 	 0.031008 	 0.046121 	 0.085869 
0.961240 	 0.031008 	 0.027195 	 0.100539 
0.968992 	 0.031008 	 0.010164 	 0.112989 
0.976744 	 0.031008 	 -0.002283 	 0.116765 
0.984496 	 0.031008 	 -0.007484 	 0.100647 
0.992248 	 0.031008 	 -0.004988 	 0.049407 
0.000000 	 0.038760 	 0.000000 	 -0.018523 
0.007752 	 0.038760 	 -0.001926 	 -0.043941 
0.015504 	 0.038760 	 -0.005036 	 -0.059536 
0.023256 	 0.038760 	 -0.007602 	 -0.067497 
0.031008 	 0.038760 	 -0.008619 	 -0.070028 
0.038760 	 0.038760 	 -0.007673 	 -0.069053 
0.046512 	 0.038760 	 -0.004780 	 -0.066047 
0.054264 	 0.038760 	 -0.000207 	 -0.062038 
0.062016 	 0.038760 	 0.005682 	 -0.057675 
0.069767 	 0.038760 	 0.012518 	 -0.053341 
0.077519 	 0.038760 	 0.019981 	 -0.049237 
0.085271 	 0.038760 	 0.027808 	 -0.045452 
0.093023 	 0.038760 	 0.035802 	 -0.042014 
0.100775 	 0.038760 	 0.043815 	 -0.038914 
0.108527 	 0.038760 	 0.051744 	 -0.036127 
0.116279 	 0.038760 	 0.059516 	 -0.033620 
0.124031 	 0.038760 	 0.067083 	 -0.031361 
0.131783 	 0.038760 	 0.074413 	 -0.029319 
0.139535 	 0.038760 	 0.081488 	 -0.027465 
0.147287 	 0.038760 	 0.088298 	 -0.025775 
0.155039 	 0.038760 	 0.094837 	 -0.024228 
0.162791 	 0.038760 	 0.101108 	 -0.022805 
0.170543 	 0.038760 	 0.107112 	 -0.021493 
0.178295 	 0.038760 	 0.112856 	 -0.020277 
0.186047 	 0.038760 	 0.118345 	 -0.019147 
0.193798 	 0.038760 	 0.123587 	 -0.018093 