VARIABLES ="X", "Y", "Omega"
ZONE T = "BLOCK1", I = 129, J = 129, F = POINT

0.000000 	 0.000000 	 -2.063209 
0.007752 	 0.000000 	 -3.416508 
0.015504 	 0.000000 	 -5.788389 
0.023256 	 0.000000 	 -8.808031 
0.031008 	 0.000000 	 -11.914737 
0.038760 	 0.000000 	 -14.756926 
0.046512 	 0.000000 	 -17.220146 
0.054264 	 0.000000 	 -19.312220 
0.062016 	 0.000000 	 -21.083873 
0.069767 	 0.000000 	 -22.592438 
0.077519 	 0.000000 	 -23.888889 
0.085271 	 0.000000 	 -25.014821 
0.093023 	 0.000000 	 -26.003014 
0.100775 	 0.000000 	 -26.878986 
0.108527 	 0.000000 	 -27.662566 
0.116279 	 0.000000 	 -28.369220 
0.124031 	 0.000000 	 -29.011098 
0.131783 	 0.000000 	 -29.597822 
0.139535 	 0.000000 	 -30.137082 
0.147287 	 0.000000 	 -30.635081 
0.155039 	 0.000000 	 -31.096875 
0.162791 	 0.000000 	 -31.526619 
0.170543 	 0.000000 	 -31.927768 
0.178295 	 0.000000 	 -32.303219 
0.186047 	 0.000000 	 -32.655423 
0.193798 	 0.000000 	 -32.986476 
0.201550 	 0.000000 	 -33.298184 
0.209302 	 0.000000 	 -33.592118 
0.217054 	 0.000000 	 -33.869654 
0.224806 	 0.000000 	 -34.132008 
0.232558 	 0.000000 	 -34.380260 
0.240310 	 0.000000 	 -34.615378 
0.248062 	 0.000000 	 -34.838232 
0.255814 	 0.000000 	 -35.049609 
0.263566 	 0.000000 	 -35.250224 
0.271318 	 0.000000 	 -35.440730 
0.279070 	 0.000000 	 -35.621723 
0.286822 	 0.000000 	 -35.793754 
0.294574 	 0.000000 	 -35.957326 
0.302326 	 0.000000 	 -36.112907 
0.310078 	 0.000000 	 -36.260926 
0.317829 	 0.000000 	 -36.401782 
0.325581 	 0.000000 	 -36.535847 
0.333333 	 0.000000 	 -36.663464 
0.341085 	 0.000000 	 -36.784952 
0.348837 	 0.000000 	 -36.900608 
0.356589 	 0.000000 	 -37.010710 
0.364341 	 0.000000 	 -37.115514 
0.372093 	 0.000000 	 -37.215261 
0.379845 	 0.000000 	 -37.310175 
0.387597 	 0.000000 	 -37.400464 
0.395349 	 0.000000 	 -37.486321 
0.403101 	 0.000000 	 -37.567927 
0.410853 	 0.000000 	 -37.645451 
0.418605 	 0.000000 	 -37.719047 
0.426357 	 0.000000 	 -37.788861 
0.434109 	 0.000000 	 -37.855025 
0.441860 	 0.000000 	 -37.917664 
0.449612 	 0.000000 	 -37.976889 
0.457364 	 0.000000 	 -38.032805 
0.465116 	 0.000000 	 -38.085504 
0.472868 	 0.000000 	 -38.135072 
0.480620 	 0.000000 	 -38.181584 
0.488372 	 0.000000 	 -38.225105 
0.496124 	 0.000000 	 -38.265694 
0.503876 	 0.000000 	 -38.303396 
0.511628 	 0.000000 	 -38.338252 
0.519380 	 0.000000 	 -38.370290 
0.527132 	 0.000000 	 -38.399531 
0.534884 	 0.000000 	 -38.425984 
0.542636 	 0.000000 	 -38.449650 
0.550388 	 0.000000 	 -38.470519 
0.558140 	 0.000000 	 -38.488570 
0.565891 	 0.000000 	 -38.503771 
0.573643 	 0.000000 	 -38.516081 
0.581395 	 0.000000 	 -38.525445 
0.589147 	 0.000000 	 -38.531797 
0.596899 	 0.000000 	 -38.535057 
0.604651 	 0.000000 	 -38.535133 
0.612403 	 0.000000 	 -38.531921 
0.620155 	 0.000000 	 -38.525300 
0.627907 	 0.000000 	 -38.515136 
0.635659 	 0.000000 	 -38.501278 
0.643411 	 0.000000 	 -38.483561 
0.651163 	 0.000000 	 -38.461800 
0.658915 	 0.000000 	 -38.435796 
0.666667 	 0.000000 	 -38.405328 
0.674419 	 0.000000 	 -38.370156 
0.682171 	 0.000000 	 -38.330020 
0.689922 	 0.000000 	 -38.284637 
0.697674 	 0.000000 	 -38.233701 
0.705426 	 0.000000 	 -38.176879 
0.713178 	 0.000000 	 -38.113810 
0.720930 	 0.000000 	 -38.044104 
0.728682 	 0.000000 	 -37.967337 
0.736434 	 0.000000 	 -37.883048 
0.744186 	 0.000000 	 -37.790735 
0.751938 	 0.000000 	 -37.689848 
0.759690 	 0.000000 	 -37.579784 
0.767442 	 0.000000 	 -37.459880 
0.775194 	 0.000000 	 -37.329398 
0.782946 	 0.000000 	 -37.187518 
0.790698 	 0.000000 	 -37.033317 
0.798450 	 0.000000 	 -36.865754 
0.806202 	 0.000000 	 -36.683637 
0.813953 	 0.000000 	 -36.485596 
0.821705 	 0.000000 	 -36.270040 
0.829457 	 0.000000 	 -36.035097 
0.837209 	 0.000000 	 -35.778543 
0.844961 	 0.000000 	 -35.497709 
0.852713 	 0.000000 	 -35.189347 
0.860465 	 0.000000 	 -34.849459 
0.868217 	 0.000000 	 -34.473059 
0.875969 	 0.000000 	 -34.053845 
0.883721 	 0.000000 	 -33.583742 
0.891473 	 0.000000 	 -33.052251 
0.899225 	 0.000000 	 -32.445516 
0.906977 	 0.000000 	 -31.744968 
0.914729 	 0.000000 	 -30.925313 
0.922481 	 0.000000 	 -29.951526 
0.930233 	 0.000000 	 -28.774323 
0.937984 	 0.000000 	 -27.323393 
0.945736 	 0.000000 	 -25.497744 
0.953488 	 0.000000 	 -23.154073 
0.961240 	 0.000000 	 -20.101697 
0.968992 	 0.000000 	 -16.140400 
0.976744 	 0.000000 	 -11.262201 
0.984496 	 0.000000 	 -6.363824 
0.992248 	 0.000000 	 -5.509831 
0.000000 	 0.007752 	 -3.090887 
0.007752 	 0.007752 	 -0.168705 
0.015504 	 0.007752 	 3.140918 
0.023256 	 0.007752 	 5.590180 
0.031008 	 0.007752 	 7.011199 
0.038760 	 0.007752 	 7.692786 
0.046512 	 0.007752 	 7.924898 
0.054264 	 0.007752 	 7.904434 
0.062016 	 0.007752 	 7.749444 
0.069767 	 0.007752 	 7.527193 
0.077519 	 0.007752 	 7.275128 
0.085271 	 0.007752 	 7.013798 
0.093023 	 0.007752 	 6.754302 
0.100775 	 0.007752 	 6.502466 
0.108527 	 0.007752 	 6.261176 
0.116279 	 0.007752 	 6.031679 
0.124031 	 0.007752 	 5.814317 
0.131783 	 0.007752 	 5.608945 
0.139535 	 0.007752 	 5.415164 
0.147287 	 0.007752 	 5.232451 
0.155039 	 0.007752 	 5.060242 
0.162791 	 0.007752 	 4.897965 
0.170543 	 0.007752 	 4.745066 
0.178295 	 0.007752 	 4.601016 
0.186047 	 0.007752 	 4.465319 
0.193798 	 0.007752 	 4.337510 
0.201550 	 0.007752 	 4.217153 
0.209302 	 0.007752 	 4.103840 
0.217054 	 0.007752 	 3.997191 
0.224806 	 0.007752 	 3.896847 
0.232558 	 0.007752 	 3.802469 
0.240310 	 0.007752 	 3.713738 
0.248062 	 0.007752 	 3.630353 
0.255814 	 0.007752 	 3.552026 
0.263566 	 0.007752 	 3.478486 
0.271318 	 0.007752 	 3.409472 
0.279070 	 0.007752 	 3.344738 
0.286822 	 0.007752 	 3.284047 
0.294574 	 0.007752 	 3.227173 
0.302326 	 0.007752 	 3.173901 
0.310078 	 0.007752 	 3.124024 
0.317829 	 0.007752 	 3.077344 
0.325581 	 0.007752 	 3.033673 
0.333333 	 0.007752 	 2.992829 
0.341085 	 0.007752 	 2.954639 
0.348837 	 0.007752 	 2.918938 
0.356589 	 0.007752 	 2.885568 
0.364341 	 0.007752 	 2.854378 
0.372093 	 0.007752 	 2.825224 
0.379845 	 0.007752 	 2.797970 
0.387597 	 0.007752 	 2.772485 
0.395349 	 0.007752 	 2.748645 
0.403101 	 0.007752 	 2.726335 
0.410853 	 0.007752 	 2.705443 
0.418605 	 0.007752 	 2.685865 
0.426357 	 0.007752 	 2.667504 
0.434109 	 0.007752 	 2.650268 
0.441860 	 0.007752 	 2.634074 
0.449612 	 0.007752 	 2.618841 
0.457364 	 0.007752 	 2.604498 
0.465116 	 0.007752 	 2.590979 
0.472868 	 0.007752 	 2.578225 
0.480620 	 0.007752 	 2.566181 
0.488372 	 0.007752 	 2.554801 
0.496124 	 0.007752 	 2.544044 
0.503876 	 0.007752 	 2.533877 
0.511628 	 0.007752 	 2.524271 
0.519380 	 0.007752 	 2.515205 
0.527132 	 0.007752 	 2.506665 
0.534884 	 0.007752 	 2.498641 
0.542636 	 0.007752 	 2.491133 
0.550388 	 0.007752 	 2.484146 
0.558140 	 0.007752 	 2.477691 
0.565891 	 0.007752 	 2.471786 
0.573643 	 0.007752 	 2.466458 
0.581395 	 0.007752 	 2.461737 
0.589147 	 0.007752 	 2.457664 
0.596899 	 0.007752 	 2.454284 
0.604651 	 0.007752 	 2.451650 
0.612403 	 0.007752 	 2.449822 
0.620155 	 0.007752 	 2.448869 
0.627907 	 0.007752 	 2.448865 
0.635659 	 0.007752 	 2.449893 
0.643411 	 0.007752 	 2.452042 
0.651163 	 0.007752 	 2.455412 
0.658915 	 0.007752 	 2.460108 
0.666667 	 0.007752 	 2.466244 
0.674419 	 0.007752 	 2.473945 
0.682171 	 0.007752 	 2.483342 
0.689922 	 0.007752 	 2.494577 
0.697674 	 0.007752 	 2.507803 
0.705426 	 0.007752 	 2.523182 
0.713178 	 0.007752 	 2.540890 
0.720930 	 0.007752 	 2.561113 
0.728682 	 0.007752 	 2.584056 
0.736434 	 0.007752 	 2.609936 
0.744186 	 0.007752 	 2.638990 
0.751938 	 0.007752 	 2.671476 
0.759690 	 0.007752 	 2.707676 
0.767442 	 0.007752 	 2.747902 
0.775194 	 0.007752 	 2.792500 
0.782946 	 0.007752 	 2.841854 
0.790698 	 0.007752 	 2.896401 
0.798450 	 0.007752 	 2.956635 
0.806202 	 0.007752 	 3.023127 
0.813953 	 0.007752 	 3.096537 
0.821705 	 0.007752 	 3.177641 
0.829457 	 0.007752 	 3.267358 
0.837209 	 0.007752 	 3.366790 
0.844961 	 0.007752 	 3.477274 
0.852713 	 0.007752 	 3.600448 
0.860465 	 0.007752 	 3.738343 
0.868217 	 0.007752 	 3.893500 
0.875969 	 0.007752 	 4.069131 
0.883721 	 0.007752 	 4.269331 
0.891473 	 0.007752 	 4.499355 
0.899225 	 0.007752 	 4.765977 
0.906977 	 0.007752 	 5.077919 
0.914729 	 0.007752 	 5.446321 
0.922481 	 0.007752 	 5.885064 
0.930233 	 0.007752 	 6.410458 
0.937984 	 0.007752 	 7.038905 
0.945736 	 0.007752 	 7.778916 
0.953488 	 0.007752 	 8.608209 
0.961240 	 0.007752 	 9.413542 
0.968992 	 0.007752 	 9.845001 
0.976744 	 0.007752 	 9.001767 
0.984496 	 0.007752 	 4.868830 
0.992248 	 0.007752 	 -6.476696 
0.000000 	 0.015504 	 -3.973178 
0.007752 	 0.015504 	 -1.347408 
0.015504 	 0.015504 	 1.026045 
0.023256 	 0.015504 	 2.911240 
0.031008 	 0.015504 	 4.233113 
0.038760 	 0.015504 	 5.077867 
0.046512 	 0.015504 	 5.573792 
0.054264 	 0.015504 	 5.832853 
0.062016 	 0.015504 	 5.937215 
0.069767 	 0.015504 	 5.942789 
0.077519 	 0.015504 	 5.886346 
0.085271 	 0.015504 	 5.791724 
0.093023 	 0.015504 	 5.674317 
0.100775 	 0.015504 	 5.544075 
0.108527 	 0.015504 	 5.407443 
0.116279 	 0.015504 	 5.268610 
0.124031 	 0.015504 	 5.130295 
0.131783 	 0.015504 	 4.994256 
0.139535 	 0.015504 	 4.861620 
0.147287 	 0.015504 	 4.733093 
0.155039 	 0.015504 	 4.609100 
0.162791 	 0.015504 	 4.489877 
0.170543 	 0.015504 	 4.375533 
0.178295 	 0.015504 	 4.266091 
0.186047 	 0.015504 	 4.161512 
0.193798 	 0.015504 	 4.061722 
0.201550 	 0.015504 	 3.966616 
0.209302 	 0.015504 	 3.876074 
0.217054 	 0.015504 	 3.789962 
0.224806 	 0.015504 	 3.708140 
0.232558 	 0.015504 	 3.630462 
0.240310 	 0.015504 	 3.556779 
0.248062 	 0.015504 	 3.486943 
0.255814 	 0.015504 	 3.420805 
0.263566 	 0.015504 	 3.358217 
0.271318 	 0.015504 	 3.299031 
0.279070 	 0.015504 	 3.243104 
0.286822 	 0.015504 	 3.190292 
0.294574 	 0.015504 	 3.140457 
0.302326 	 0.015504 	 3.093460 
0.310078 	 0.015504 	 3.049167 
0.317829 	 0.015504 	 3.007447 
0.325581 	 0.015504 	 2.968172 
0.333333 	 0.015504 	 2.931217 
0.341085 	 0.015504 	 2.896461 
0.348837 	 0.015504 	 2.863785 
0.356589 	 0.015504 	 2.833076 
0.364341 	 0.015504 	 2.804222 
0.372093 	 0.015504 	 2.777116 
0.379845 	 0.015504 	 2.751656 
0.387597 	 0.015504 	 2.727740 
0.395349 	 0.015504 	 2.705275 
0.403101 	 0.015504 	 2.684167 
0.410853 	 0.015504 	 2.664330 
0.418605 	 0.015504 	 2.645680 
0.426357 	 0.015504 	 2.628137 
0.434109 	 0.015504 	 2.611626 
0.441860 	 0.015504 	 2.596077 
0.449612 	 0.015504 	 2.581423 
0.457364 	 0.015504 	 2.567603 
0.465116 	 0.015504 	 2.554557 
0.472868 	 0.015504 	 2.542235 
0.480620 	 0.015504 	 2.530588 
0.488372 	 0.015504 	 2.519572 
0.496124 	 0.015504 	 2.509150 
0.503876 	 0.015504 	 2.499288 
0.511628 	 0.015504 	 2.489956 
0.519380 	 0.015504 	 2.481133 
0.527132 	 0.015504 	 2.472800 
0.534884 	 0.015504 	 2.464945 
0.542636 	 0.015504 	 2.457558 
0.550388 	 0.015504 	 2.450640 
0.558140 	 0.015504 	 2.444192 
0.565891 	 0.015504 	 2.438225 
0.573643 	 0.015504 	 2.432753 
0.581395 	 0.015504 	 2.427796 
0.589147 	 0.015504 	 2.423382 
0.596899 	 0.015504 	 2.419542 
0.604651 	 0.015504 	 2.416316 
0.612403 	 0.015504 	 2.413748 
0.620155 	 0.015504 	 2.411889 
0.627907 	 0.015504 	 2.410797 
0.635659 	 0.015504 	 2.410537 
0.643411 	 0.015504 	 2.411180 
0.651163 	 0.015504 	 2.412803 
0.658915 	 0.015504 	 2.415494 
0.666667 	 0.015504 	 2.419345 
0.674419 	 0.015504 	 2.424458 
0.682171 	 0.015504 	 2.430941 
0.689922 	 0.015504 	 2.438915 
0.697674 	 0.015504 	 2.448507 
0.705426 	 0.015504 	 2.459855 
0.713178 	 0.015504 	 2.473110 
0.720930 	 0.015504 	 2.488432 
0.728682 	 0.015504 	 2.505998 
0.736434 	 0.015504 	 2.525999 
0.744186 	 0.015504 	 2.548642 
0.751938 	 0.015504 	 2.574156 
0.759690 	 0.015504 	 2.602792 
0.767442 	 0.015504 	 2.634830 
0.775194 	 0.015504 	 2.670579 
0.782946 	 0.015504 	 2.710391 
0.790698 	 0.015504 	 2.754660 
0.798450 	 0.015504 	 2.803840 
0.806202 	 0.015504 	 2.858454 
0.813953 	 0.015504 	 2.919110 
0.821705 	 0.015504 	 2.986527 
0.829457 	 0.015504 	 3.061556 
0.837209 	 0.015504 	 3.145220 
0.844961 	 0.015504 	 3.238761 
0.852713 	 0.015504 	 3.343694 
0.860465 	 0.015504 	 3.461889 
0.868217 	 0.015504 	 3.595659 
0.875969 	 0.015504 	 3.747885 
0.883721 	 0.015504 	 3.922144 
0.891473 	 0.015504 	 4.122860 
0.899225 	 0.015504 	 4.355406 
0.906977 	 0.015504 	 4.626097 
0.914729 	 0.015504 	 4.941826 
0.922481 	 0.015504 	 5.308879 
0.930233 	 0.015504 	 5.729858 
0.937984 	 0.015504 	 6.196485 
0.945736 	 0.015504 	 6.673757 
0.953488 	 0.015504 	 7.067104 
0.961240 	 0.015504 	 7.159658 
0.968992 	 0.015504 	 6.508262 
0.976744 	 0.015504 	 4.315497 
0.984496 	 0.015504 	 -0.601663 
0.992248 	 0.015504 	 -9.351494 
0.000000 	 0.023256 	 -4.241733 
0.007752 	 0.023256 	 -2.106047 
0.015504 	 0.023256 	 -0.273091 
0.023256 	 0.023256 	 1.218963 
0.031008 	 0.023256 	 2.358611 
0.038760 	 0.023256 	 3.184142 
0.046512 	 0.023256 	 3.757128 
0.054264 	 0.023256 	 4.139418 
0.062016 	 0.023256 	 4.382827 
0.069767 	 0.023256 	 4.527078 
0.077519 	 0.023256 	 4.601272 
0.085271 	 0.023256 	 4.626248 
0.093023 	 0.023256 	 4.616783 
0.100775 	 0.023256 	 4.583336 
0.108527 	 0.023256 	 4.533325 
0.116279 	 0.023256 	 4.472037 
0.124031 	 0.023256 	 4.403260 
0.131783 	 0.023256 	 4.329727 
0.139535 	 0.023256 	 4.253422 
0.147287 	 0.023256 	 4.175791 
0.155039 	 0.023256 	 4.097896 
0.162791 	 0.023256 	 4.020515 
0.170543 	 0.023256 	 3.944223 
0.178295 	 0.023256 	 3.869440 
0.186047 	 0.023256 	 3.796474 
0.193798 	 0.023256 	 3.725546 
0.201550 	 0.023256 	 3.656812 
0.209302 	 0.023256 	 3.590379 
0.217054 	 0.023256 	 3.526316 
0.224806 	 0.023256 	 3.464661 
0.232558 	 0.023256 	 3.405428 
0.240310 	 0.023256 	 3.348614 
0.248062 	 0.023256 	 3.294199 
0.255814 	 0.023256 	 3.242153 
0.263566 	 0.023256 	 3.192435 
0.271318 	 0.023256 	 3.144998 
0.279070 	 0.023256 	 3.099788 
0.286822 	 0.023256 	 3.056746 
0.294574 	 0.023256 	 3.015808 
0.302326 	 0.023256 	 2.976910 
0.310078 	 0.023256 	 2.939982 
0.317829 	 0.023256 	 2.904954 
0.325581 	 0.023256 	 2.871755 
0.333333 	 0.023256 	 2.840313 
0.341085 	 0.023256 	 2.810556 
0.348837 	 0.023256 	 2.782410 
0.356589 	 0.023256 	 2.755803 
0.364341 	 0.023256 	 2.730664 
0.372093 	 0.023256 	 2.706921 
0.379845 	 0.023256 	 2.684505 
0.387597 	 0.023256 	 2.663346 
0.395349 	 0.023256 	 2.643379 
0.403101 	 0.023256 	 2.624536 
0.410853 	 0.023256 	 2.606756 
0.418605 	 0.023256 	 2.589975 
0.426357 	 0.023256 	 2.574136 
0.434109 	 0.023256 	 2.559180 
0.441860 	 0.023256 	 2.545054 
0.449612 	 0.023256 	 2.531705 
0.457364 	 0.023256 	 2.519086 
0.465116 	 0.023256 	 2.507149 
0.472868 	 0.023256 	 2.495852 
0.480620 	 0.023256 	 2.485157 
0.488372 	 0.023256 	 2.475025 
0.496124 	 0.023256 	 2.465425 
0.503876 	 0.023256 	 2.456328 
0.511628 	 0.023256 	 2.447709 
0.519380 	 0.023256 	 2.439545 
0.527132 	 0.023256 	 2.431820 
0.534884 	 0.023256 	 2.424520 
0.542636 	 0.023256 	 2.417636 
0.550388 	 0.023256 	 2.411164 
0.558140 	 0.023256 	 2.405103 
0.565891 	 0.023256 	 2.399458 
0.573643 	 0.023256 	 2.394236 
0.581395 	 0.023256 	 2.389453 
0.589147 	 0.023256 	 2.385127 
0.596899 	 0.023256 	 2.381281 
0.604651 	 0.023256 	 2.377944 
0.612403 	 0.023256 	 2.375152 
0.620155 	 0.023256 	 2.372943 
0.627907 	 0.023256 	 2.371363 
0.635659 	 0.023256 	 2.370463 
0.643411 	 0.023256 	 2.370301 
0.651163 	 0.023256 	 2.370940 
0.658915 	 0.023256 	 2.372451 
0.666667 	 0.023256 	 2.374910 
0.674419 	 0.023256 	 2.378403 
0.682171 	 0.023256 	 2.383022 
0.689922 	 0.023256 	 2.388867 
0.697674 	 0.023256 	 2.396048 
0.705426 	 0.023256 	 2.404684 
0.713178 	 0.023256 	 2.414905 
0.720930 	 0.023256 	 2.426853 
0.728682 	 0.023256 	 2.440682 
0.736434 	 0.023256 	 2.456561 
0.744186 	 0.023256 	 2.474679 
0.751938 	 0.023256 	 2.495240 
0.759690 	 0.023256 	 2.518473 
0.767442 	 0.023256 	 2.544633 
0.775194 	 0.023256 	 2.574009 
0.782946 	 0.023256 	 2.606924 
0.790698 	 0.023256 	 2.643750 
0.798450 	 0.023256 	 2.684913 
0.806202 	 0.023256 	 2.730908 
0.813953 	 0.023256 	 2.782316 
0.821705 	 0.023256 	 2.839819 
0.829457 	 0.023256 	 2.904234 
0.837209 	 0.023256 	 2.976538 
0.844961 	 0.023256 	 3.057913 
0.852713 	 0.023256 	 3.149792 
0.860465 	 0.023256 	 3.253921 
0.868217 	 0.023256 	 3.372416 
0.875969 	 0.023256 	 3.507830 
0.883721 	 0.023256 	 3.663186 
0.891473 	 0.023256 	 3.841953 
0.899225 	 0.023256 	 4.047848 
0.906977 	 0.023256 	 4.284311 
0.914729 	 0.023256 	 4.553260 
0.922481 	 0.023256 	 4.852473 
0.930233 	 0.023256 	 5.170334 
0.937984 	 0.023256 	 5.475833 
0.945736 	 0.023256 	 5.700638 
0.953488 	 0.023256 	 5.709740 
0.961240 	 0.023256 	 5.260406 
0.968992 	 0.023256 	 3.962281 
0.976744 	 0.023256 	 1.284097 
0.984496 	 0.023256 	 -3.288972 
0.992248 	 0.023256 	 -9.793405 
0.000000 	 0.031008 	 -4.135805 
0.007752 	 0.031008 	 -2.479756 
0.015504 	 0.031008 	 -1.044104 
0.023256 	 0.031008 	 0.151206 
0.031008 	 0.031008 	 1.108649 
0.038760 	 0.031008 	 1.851038 
0.046512 	 0.031008 	 2.412185 
0.054264 	 0.031008 	 2.827811 
0.062016 	 0.031008 	 3.130155 
0.069767 	 0.031008 	 3.345914 
0.077519 	 0.031008 	 3.496145 
0.085271 	 0.031008 	 3.596999 
0.093023 	 0.031008 	 3.660691 
0.100775 	 0.031008 	 3.696398 
0.108527 	 0.031008 	 3.711012 
0.116279 	 0.031008 	 3.709719 
0.124031 	 0.031008 	 3.696437 
0.131783 	 0.031008 	 3.674142 
0.139535 	 0.031008 	 3.645111 
0.147287 	 0.031008 	 3.611094 
0.155039 	 0.031008 	 3.573449 
0.162791 	 0.031008 	 3.533232 
0.170543 	 0.031008 	 3.491272 
0.178295 	 0.031008 	 3.448223 
0.186047 	 0.031008 	 3.404601 
0.193798 	 0.031008 	 3.360820 
0.201550 	 0.031008 	 3.317205 
0.209302 	 0.031008 	 3.274020 
0.217054 	 0.031008 	 3.231474 
0.224806 	 0.031008 	 3.189732 
0.232558 	 0.031008 	 3.148926 
0.240310 	 0.031008 	 3.109160 
0.248062 	 0.031008 	 3.070513 
0.255814 	 0.031008 	 3.033045 
0.263566 	 0.031008 	 2.996801 
0.271318 	 0.031008 	 2.961810 
0.279070 	 0.031008 	 2.928092 
0.286822 	 0.031008 	 2.895654 
0.294574 	 0.031008 	 2.864497 
0.302326 	 0.031008 	 2.834615 
0.310078 	 0.031008 	 2.805993 
0.317829 	 0.031008 	 2.778614 
0.325581 	 0.031008 	 2.752455 
0.333333 	 0.031008 	 2.727488 
0.341085 	 0.031008 	 2.703684 
0.348837 	 0.031008 	 2.681011 
0.356589 	 0.031008 	 2.659432 
0.364341 	 0.031008 	 2.638912 
0.372093 	 0.031008 	 2.619412 
0.379845 	 0.031008 	 2.600894 
0.387597 	 0.031008 	 2.583317 
0.395349 	 0.031008 	 2.566640 
0.403101 	 0.031008 	 2.550823 
0.410853 	 0.031008 	 2.535827 
0.418605 	 0.031008 	 2.521610 
0.426357 	 0.031008 	 2.508134 
0.434109 	 0.031008 	 2.495359 
0.441860 	 0.031008 	 2.483248 
0.449612 	 0.031008 	 2.471766 
0.457364 	 0.031008 	 2.460876 
0.465116 	 0.031008 	 2.450547 
0.472868 	 0.031008 	 2.440746 
0.480620 	 0.031008 	 2.431443 
0.488372 	 0.031008 	 2.422613 
0.496124 	 0.031008 	 2.414230 
0.503876 	 0.031008 	 2.406272 
0.511628 	 0.031008 	 2.398718 
0.519380 	 0.031008 	 2.391552 
0.527132 	 0.031008 	 2.384760 
0.534884 	 0.031008 	 2.378330 
0.542636 	 0.031008 	 2.372256 
0.550388 	 0.031008 	 2.366533 
0.558140 	 0.031008 	 2.361159 
0.565891 	 0.031008 	 2.356138 
0.573643 	 0.031008 	 2.351476 
0.581395 	 0.031008 	 2.347183 
0.589147 	 0.031008 	 2.343274 
0.596899 	 0.031008 	 2.339768 
0.604651 	 0.031008 	 2.336686 
0.612403 	 0.031008 	 2.334058 
0.620155 	 0.031008 	 2.331915 
0.627907 	 0.031008 	 2.330294 
0.635659 	 0.031008 	 2.329238 
0.643411 	 0.031008 	 2.328793 
0.651163 	 0.031008 	 2.329013 
0.658915 	 0.031008 	 2.329957 
0.666667 	 0.031008 	 2.331689 
0.674419 	 0.031008 	 2.334283 
0.682171 	 0.031008 	 2.337816 
0.689922 	 0.031008 	 2.342376 
0.697674 	 0.031008 	 2.348057 
0.705426 	 0.031008 	 2.354965 
0.713178 	 0.031008 	 2.363213 
0.720930 	 0.031008 	 2.372928 
0.728682 	 0.031008 	 2.384247 
0.736434 	 0.031008 	 2.397325 
0.744186 	 0.031008 	 2.412331 
0.751938 	 0.031008 	 2.429454 
0.759690 	 0.031008 	 2.448906 
0.767442 	 0.031008 	 2.470925 
0.775194 	 0.031008 	 2.495781 
0.782946 	 0.031008 	 2.523783 
0.790698 	 0.031008 	 2.555283 
0.798450 	 0.031008 	 2.590693 
0.806202 	 0.031008 	 2.630489 
0.813953 	 0.031008 	 2.675233 
0.821705 	 0.031008 	 2.725589 
0.829457 	 0.031008 	 2.782346 
0.837209 	 0.031008 	 2.846448 
0.844961 	 0.031008 	 2.919024 
0.852713 	 0.031008 	 3.001424 
0.860465 	 0.031008 	 3.095251 
0.868217 	 0.031008 	 3.202382 
0.875969 	 0.031008 	 3.324956 
0.883721 	 0.031008 	 3.465289 
0.891473 	 0.031008 	 3.625637 
0.899225 	 0.031008 	 3.807682 
0.906977 	 0.031008 	 4.011473 
0.914729 	 0.031008 	 4.233425 
0.922481 	 0.031008 	 4.462673 
0.930233 	 0.031008 	 4.674770 
0.937984 	 0.031008 	 4.821454 
0.945736 	 0.031008 	 4.815524 
0.953488 	 0.031008 	 4.511937 
0.961240 	 0.031008 	 3.691948 
0.968992 	 0.031008 	 2.068835 
0.976744 	 0.031008 	 -0.649352 
0.984496 	 0.031008 	 -4.595478 
0.992248 	 0.031008 	 -9.489397 
0.000000 	 0.038760 	 -3.869267 
0.007752 	 0.038760 	 -2.604615 
0.015504 	 0.038760 	 -1.477958 
0.023256 	 0.038760 	 -0.516008 
0.031008 	 0.038760 	 0.280607 
0.038760 	 0.038760 	 0.925448 
0.046512 	 0.038760 	 1.438812 
0.054264 	 0.038760 	 1.842657 
0.062016 	 0.038760 	 2.157586 
0.069767 	 0.038760 	 2.401469 
0.077519 	 0.038760 	 2.589084 
0.085271 	 0.038760 	 2.732316 
0.093023 	 0.038760 	 2.840566 
0.100775 	 0.038760 	 2.921207 
0.108527 	 0.038760 	 2.980007 
0.116279 	 0.038760 	 3.021473 
0.124031 	 0.038760 	 3.049142 
0.131783 	 0.038760 	 3.065796 
0.139535 	 0.038760 	 3.073635 
0.147287 	 0.038760 	 3.074413 
0.155039 	 0.038760 	 3.069529 
0.162791 	 0.038760 	 3.060113 
0.170543 	 0.038760 	 3.047080 
0.178295 	 0.038760 	 3.031175 
0.186047 	 0.038760 	 3.013011 
0.193798 	 0.038760 	 2.993090 
0.201550 	 0.038760 	 2.971830 
0.209302 	 0.038760 	 2.949581 
0.217054 	 0.038760 	 2.926633 
0.224806 	 0.038760 	 2.903229 
0.232558 	 0.038760 	 2.879575 
0.240310 	 0.038760 	 2.855844 
0.248062 	 0.038760 	 2.832180 
0.255814 	 0.038760 	 2.808706 
0.263566 	 0.038760 	 2.785524 
0.271318 	 0.038760 	 2.762720 
0.279070 	 0.038760 	 2.740366 
0.286822 	 0.038760 	 2.718518 
0.294574 	 0.038760 	 2.697225 
0.302326 	 0.038760 	 2.676525 
0.310078 	 0.038760 	 2.656447 
0.317829 	 0.038760 	 2.637012 
0.325581 	 0.038760 	 2.618236 
0.333333 	 0.038760 	 2.600129 
0.341085 	 0.038760 	 2.582694 
0.348837 	 0.038760 	 2.565933 
0.356589 	 0.038760 	 2.549840 
0.364341 	 0.038760 	 2.534409 
0.372093 	 0.038760 	 2.519629 
0.379845 	 0.038760 	 2.505487 
0.387597 	 0.038760 	 2.491968 
0.395349 	 0.038760 	 2.479055 
0.403101 	 0.038760 	 2.466730 
0.410853 	 0.038760 	 2.454972 
0.418605 	 0.038760 	 2.443762 
0.426357 	 0.038760 	 2.433079 
0.434109 	 0.038760 	 2.422900 
0.441860 	 0.038760 	 2.413205 
0.449612 	 0.038760 	 2.403972 
0.457364 	 0.038760 	 2.395179 
0.465116 	 0.038760 	 2.386806 
0.472868 	 0.038760 	 2.378834 
0.480620 	 0.038760 	 2.371244 
0.488372 	 0.038760 	 2.364018 
0.496124 	 0.038760 	 2.357139 
0.503876 	 0.038760 	 2.350594 
0.511628 	 0.038760 	 2.344369 
0.519380 	 0.038760 	 2.338454 
0.527132 	 0.038760 	 2.332838 
0.534884 	 0.038760 	 2.327515 
0.542636 	 0.038760 	 2.322482 
0.550388 	 0.038760 	 2.317735 
0.558140 	 0.038760 	 2.313275 
0.565891 	 0.038760 	 2.309106 
0.573643 	 0.038760 	 2.305235 
0.581395 	 0.038760 	 2.301670 
0.589147 	 0.038760 	 2.298425 
0.596899 	 0.038760 	 2.295516 
0.604651 	 0.038760 	 2.292963 
0.612403 	 0.038760 	 2.290788 
0.620155 	 0.038760 	 2.289021 
0.627907 	 0.038760 	 2.287692 
0.635659 	 0.038760 	 2.286837 
0.643411 	 0.038760 	 2.286497 
0.651163 	 0.038760 	 2.286717 
0.658915 	 0.038760 	 2.287549 
0.666667 	 0.038760 	 2.289049 
0.674419 	 0.038760 	 2.291279 
0.682171 	 0.038760 	 2.294309 
0.689922 	 0.038760 	 2.298213 
0.697674 	 0.038760 	 2.303078 
0.705426 	 0.038760 	 2.308995 
0.713178 	 0.038760 	 2.316066 
0.720930 	 0.038760 	 2.324406 
0.728682 	 0.038760 	 2.334141 
0.736434 	 0.038760 	 2.345410 
0.744186 	 0.038760 	 2.358371 
0.751938 	 0.038760 	 2.373200 
0.759690 	 0.038760 	 2.390095 
0.767442 	 0.038760 	 2.409282 
0.775194 	 0.038760 	 2.431018 
0.782946 	 0.038760 	 2.455599 
0.790698 	 0.038760 	 2.483367 
0.798450 	 0.038760 	 2.514718 
0.806202 	 0.038760 	 2.550119 
0.813953 	 0.038760 	 2.590114 
0.821705 	 0.038760 	 2.635350 
0.829457 	 0.038760 	 2.686590 
0.837209 	 0.038760 	 2.744736 
0.844961 	 0.038760 	 2.810849 
0.852713 	 0.038760 	 2.886166 
0.860465 	 0.038760 	 2.972094 
0.868217 	 0.038760 	 3.070183 
0.875969 	 0.038760 	 3.182022 
0.883721 	 0.038760 	 3.309013 
0.891473 	 0.038760 	 3.451929 
0.899225 	 0.038760 	 3.610078 
0.906977 	 0.038760 	 3.779822 
0.914729 	 0.038760 	 3.952072 
0.922481 	 0.038760 	 4.108227 
0.930233 	 0.038760 	 4.214029 
0.937984 	 0.038760 	 4.211089 
0.945736 	 0.038760 	 4.007012 
0.953488 	 0.038760 	 3.467679 
0.961240 	 0.038760 	 2.420066 
0.968992 	 0.038760 	 0.680075 
0.976744 	 0.038760 	 -1.877377 
0.984496 	 0.038760 	 -5.204419 
0.992248 	 0.038760 	 -8.986344 
0.000000 	 0.046512 	 -3.558632 
0.007752 	 0.046512 	 -2.590985 
0.015504 	 0.046512 	 -1.703425 
0.023256 	 0.046512 	 -0.926088 
0.031008 	 0.046512 	 -0.264667 
0.038760 	 0.046512 	 0.287604 
0.046512 	 0.046512 	 0.743124 
0.054264 	 0.046512 	 1.115987 
0.062016 	 0.046512 	 1.419846 
0.069767 	 0.046512 	 1.666895 
0.077519 	 0.046512 	 1.867533 
0.085271 	 0.046512 	 2.030380 
0.093023 	 0.046512 	 2.162468 
0.100775 	 0.046512 	 2.269479 
0.108527 	 0.046512 	 2.355985 
0.116279 	 0.046512 	 2.425666 
0.124031 	 0.046512 	 2.481484 
0.131783 	 0.046512 	 2.525834 
0.139535 	 0.046512 	 2.560658 
0.147287 	 0.046512 	 2.587541 
0.155039 	 0.046512 	 2.607781 
0.162791 	 0.046512 	 2.622449 
0.170543 	 0.046512 	 2.632432 
0.178295 	 0.046512 	 2.638473 
0.186047 	 0.046512 	 2.641191 
0.193798 	 0.046512 	 2.641112 
0.201550 	 0.046512 	 2.638679 
0.209302 	 0.046512 	 2.634273 
0.217054 	 0.046512 	 2.628218 
0.224806 	 0.046512 	 2.620794 
0.232558 	 0.046512 	 2.612241 
0.240310 	 0.046512 	 2.602770 
0.248062 	 0.046512 	 2.592561 
0.255814 	 0.046512 	 2.581772 
0.263566 	 0.046512 	 2.570542 
0.271318 	 0.046512 	 2.558991 
0.279070 	 0.046512 	 2.547222 
0.286822 	 0.046512 	 2.535326 
0.294574 	 0.046512 	 2.523383 
0.302326 	 0.046512 	 2.511461 
0.310078 	 0.046512 	 2.499619 
0.317829 	 0.046512 	 2.487908 
0.325581 	 0.046512 	 2.476369 
0.333333 	 0.046512 	 2.465040 
0.341085 	 0.046512 	 2.453951 
0.348837 	 0.046512 	 2.443126 
0.356589 	 0.046512 	 2.432585 
0.364341 	 0.046512 	 2.422344 
0.372093 	 0.046512 	 2.412414 
0.379845 	 0.046512 	 2.402803 
0.387597 	 0.046512 	 2.393516 
0.395349 	 0.046512 	 2.384556 
0.403101 	 0.046512 	 2.375922 
0.410853 	 0.046512 	 2.367613 
0.418605 	 0.046512 	 2.359624 
0.426357 	 0.046512 	 2.351950 
0.434109 	 0.046512 	 2.344585 
0.441860 	 0.046512 	 2.337521 
0.449612 	 0.046512 	 2.330750 
0.457364 	 0.046512 	 2.324264 
0.465116 	 0.046512 	 2.318053 
0.472868 	 0.046512 	 2.312110 
0.480620 	 0.046512 	 2.306425 
0.488372 	 0.046512 	 2.300990 
0.496124 	 0.046512 	 2.295798 
0.503876 	 0.046512 	 2.290843 
0.511628 	 0.046512 	 2.286117 
0.519380 	 0.046512 	 2.281618 
0.527132 	 0.046512 	 2.277341 
0.534884 	 0.046512 	 2.273284 
0.542636 	 0.046512 	 2.269448 
0.550388 	 0.046512 	 2.265834 
0.558140 	 0.046512 	 2.262446 
0.565891 	 0.046512 	 2.259289 
0.573643 	 0.046512 	 2.256372 
0.581395 	 0.046512 	 2.253704 
0.589147 	 0.046512 	 2.251299 
0.596899 	 0.046512 	 2.249172 
0.604651 	 0.046512 	 2.247343 
0.612403 	 0.046512 	 2.245832 
0.620155 	 0.046512 	 2.244665 
0.627907 	 0.046512 	 2.243870 
0.635659 	 0.046512 	 2.243479 
0.643411 	 0.046512 	 2.243530 
0.651163 	 0.046512 	 2.244061 
0.658915 	 0.046512 	 2.245118 
0.666667 	 0.046512 	 2.246752 
0.674419 	 0.046512 	 2.249018 
0.682171 	 0.046512 	 2.251977 
0.689922 	 0.046512 	 2.255699 
0.697674 	 0.046512 	 2.260257 
0.705426 	 0.046512 	 2.265737 
0.713178 	 0.046512 	 2.272231 
0.720930 	 0.046512 	 2.279844 
0.728682 	 0.046512 	 2.288692 
0.736434 	 0.046512 	 2.298903 
0.744186 	 0.046512 	 2.310626 
0.751938 	 0.046512 	 2.324026 
0.759690 	 0.046512 	 2.339292 
0.767442 	 0.046512 	 2.356638 
0.775194 	 0.046512 	 2.376311 
0.782946 	 0.046512 	 2.398598 
0.790698 	 0.046512 	 2.423829 
0.798450 	 0.046512 	 2.452391 
0.806202 	 0.046512 	 2.484734 
0.813953 	 0.046512 	 2.521390 
0.821705 	 0.046512 	 2.562977 
0.829457 	 0.046512 	 2.610223 
0.837209 	 0.046512 	 2.663967 
0.844961 	 0.046512 	 2.725173 
0.852713 	 0.046512 	 2.794911 
0.860465 	 0.046512 	 2.874321 
0.868217 	 0.046512 	 2.964513 
0.875969 	 0.046512 	 3.066374 
0.883721 	 0.046512 	 3.180202 
0.891473 	 0.046512 	 3.305067 
0.899225 	 0.046512 	 3.437730 
0.906977 	 0.046512 	 3.570903 
0.914729 	 0.046512 	 3.690568 
0.922481 	 0.046512 	 3.772112 
0.930233 	 0.046512 	 3.775238 
0.937984 	 0.046512 	 3.638268 
0.945736 	 0.046512 	 3.273740 
0.953488 	 0.046512 	 2.569429 