VARIABLES ="X", "Y", "PSI"
ZONE T = "BLOCK1", I = 129, J = 129, F = POINT

0.000000 	 0.000000 	 0.000000 
0.007752 	 0.000000 	 0.000000 
0.015504 	 0.000000 	 0.000000 
0.023256 	 0.000000 	 0.000000 
0.031008 	 0.000000 	 0.000000 
0.038760 	 0.000000 	 0.000000 
0.046512 	 0.000000 	 0.000000 
0.054264 	 0.000000 	 0.000000 
0.062016 	 0.000000 	 0.000000 
0.069767 	 0.000000 	 0.000000 
0.077519 	 0.000000 	 0.000000 
0.085271 	 0.000000 	 0.000000 
0.093023 	 0.000000 	 0.000000 
0.100775 	 0.000000 	 0.000000 
0.108527 	 0.000000 	 0.000000 
0.116279 	 0.000000 	 0.000000 
0.124031 	 0.000000 	 0.000000 
0.131783 	 0.000000 	 0.000000 
0.139535 	 0.000000 	 0.000000 
0.147287 	 0.000000 	 0.000000 
0.155039 	 0.000000 	 0.000000 
0.162791 	 0.000000 	 0.000000 
0.170543 	 0.000000 	 0.000000 
0.178295 	 0.000000 	 0.000000 
0.186047 	 0.000000 	 0.000000 
0.193798 	 0.000000 	 0.000000 
0.201550 	 0.000000 	 0.000000 
0.209302 	 0.000000 	 0.000000 
0.217054 	 0.000000 	 0.000000 
0.224806 	 0.000000 	 0.000000 
0.232558 	 0.000000 	 0.000000 
0.240310 	 0.000000 	 0.000000 
0.248062 	 0.000000 	 0.000000 
0.255814 	 0.000000 	 0.000000 
0.263566 	 0.000000 	 0.000000 
0.271318 	 0.000000 	 0.000000 
0.279070 	 0.000000 	 0.000000 
0.286822 	 0.000000 	 0.000000 
0.294574 	 0.000000 	 0.000000 
0.302326 	 0.000000 	 0.000000 
0.310078 	 0.000000 	 0.000000 
0.317829 	 0.000000 	 0.000000 
0.325581 	 0.000000 	 0.000000 
0.333333 	 0.000000 	 0.000000 
0.341085 	 0.000000 	 0.000000 
0.348837 	 0.000000 	 0.000000 
0.356589 	 0.000000 	 0.000000 
0.364341 	 0.000000 	 0.000000 
0.372093 	 0.000000 	 0.000000 
0.379845 	 0.000000 	 0.000000 
0.387597 	 0.000000 	 0.000000 
0.395349 	 0.000000 	 0.000000 
0.403101 	 0.000000 	 0.000000 
0.410853 	 0.000000 	 0.000000 
0.418605 	 0.000000 	 0.000000 
0.426357 	 0.000000 	 0.000000 
0.434109 	 0.000000 	 0.000000 
0.441860 	 0.000000 	 0.000000 
0.449612 	 0.000000 	 0.000000 
0.457364 	 0.000000 	 0.000000 
0.465116 	 0.000000 	 0.000000 
0.472868 	 0.000000 	 0.000000 
0.480620 	 0.000000 	 0.000000 
0.488372 	 0.000000 	 0.000000 
0.496124 	 0.000000 	 0.000000 
0.503876 	 0.000000 	 0.000000 
0.511628 	 0.000000 	 0.000000 
0.519380 	 0.000000 	 0.000000 
0.527132 	 0.000000 	 0.000000 
0.534884 	 0.000000 	 0.000000 
0.542636 	 0.000000 	 0.000000 
0.550388 	 0.000000 	 0.000000 
0.558140 	 0.000000 	 0.000000 
0.565891 	 0.000000 	 0.000000 
0.573643 	 0.000000 	 0.000000 
0.581395 	 0.000000 	 0.000000 
0.589147 	 0.000000 	 0.000000 
0.596899 	 0.000000 	 0.000000 
0.604651 	 0.000000 	 0.000000 
0.612403 	 0.000000 	 0.000000 
0.620155 	 0.000000 	 0.000000 
0.627907 	 0.000000 	 0.000000 
0.635659 	 0.000000 	 0.000000 
0.643411 	 0.000000 	 0.000000 
0.651163 	 0.000000 	 0.000000 
0.658915 	 0.000000 	 0.000000 
0.666667 	 0.000000 	 0.000000 
0.674419 	 0.000000 	 0.000000 
0.682171 	 0.000000 	 0.000000 
0.689922 	 0.000000 	 0.000000 
0.697674 	 0.000000 	 0.000000 
0.705426 	 0.000000 	 0.000000 
0.713178 	 0.000000 	 0.000000 
0.720930 	 0.000000 	 0.000000 
0.728682 	 0.000000 	 0.000000 
0.736434 	 0.000000 	 0.000000 
0.744186 	 0.000000 	 0.000000 
0.751938 	 0.000000 	 0.000000 
0.759690 	 0.000000 	 0.000000 
0.767442 	 0.000000 	 0.000000 
0.775194 	 0.000000 	 0.000000 
0.782946 	 0.000000 	 0.000000 
0.790698 	 0.000000 	 0.000000 
0.798450 	 0.000000 	 0.000000 
0.806202 	 0.000000 	 0.000000 
0.813953 	 0.000000 	 0.000000 
0.821705 	 0.000000 	 0.000000 
0.829457 	 0.000000 	 0.000000 
0.837209 	 0.000000 	 0.000000 
0.844961 	 0.000000 	 0.000000 
0.852713 	 0.000000 	 0.000000 
0.860465 	 0.000000 	 0.000000 
0.868217 	 0.000000 	 0.000000 
0.875969 	 0.000000 	 0.000000 
0.883721 	 0.000000 	 0.000000 
0.891473 	 0.000000 	 0.000000 
0.899225 	 0.000000 	 0.000000 
0.906977 	 0.000000 	 0.000000 
0.914729 	 0.000000 	 0.000000 
0.922481 	 0.000000 	 0.000000 
0.930233 	 0.000000 	 0.000000 
0.937984 	 0.000000 	 0.000000 
0.945736 	 0.000000 	 0.000000 
0.953488 	 0.000000 	 0.000000 
0.961240 	 0.000000 	 0.000000 
0.968992 	 0.000000 	 0.000000 
0.976744 	 0.000000 	 0.000000 
0.984496 	 0.000000 	 0.000000 
0.992248 	 0.000000 	 0.000000 
0.000000 	 0.007752 	 0.000000 
0.007752 	 0.007752 	 0.000070 
0.015504 	 0.007752 	 0.000147 
0.023256 	 0.007752 	 0.000247 
0.031008 	 0.007752 	 0.000360 
0.038760 	 0.007752 	 0.000476 
0.046512 	 0.007752 	 0.000587 
0.054264 	 0.007752 	 0.000691 
0.062016 	 0.007752 	 0.000787 
0.069767 	 0.007752 	 0.000874 
0.077519 	 0.007752 	 0.000954 
0.085271 	 0.007752 	 0.001027 
0.093023 	 0.007752 	 0.001095 
0.100775 	 0.007752 	 0.001157 
0.108527 	 0.007752 	 0.001215 
0.116279 	 0.007752 	 0.001269 
0.124031 	 0.007752 	 0.001320 
0.131783 	 0.007752 	 0.001367 
0.139535 	 0.007752 	 0.001411 
0.147287 	 0.007752 	 0.001452 
0.155039 	 0.007752 	 0.001490 
0.162791 	 0.007752 	 0.001527 
0.170543 	 0.007752 	 0.001561 
0.178295 	 0.007752 	 0.001593 
0.186047 	 0.007752 	 0.001623 
0.193798 	 0.007752 	 0.001651 
0.201550 	 0.007752 	 0.001677 
0.209302 	 0.007752 	 0.001702 
0.217054 	 0.007752 	 0.001726 
0.224806 	 0.007752 	 0.001748 
0.232558 	 0.007752 	 0.001769 
0.240310 	 0.007752 	 0.001789 
0.248062 	 0.007752 	 0.001808 
0.255814 	 0.007752 	 0.001826 
0.263566 	 0.007752 	 0.001842 
0.271318 	 0.007752 	 0.001858 
0.279070 	 0.007752 	 0.001873 
0.286822 	 0.007752 	 0.001888 
0.294574 	 0.007752 	 0.001901 
0.302326 	 0.007752 	 0.001914 
0.310078 	 0.007752 	 0.001927 
0.317829 	 0.007752 	 0.001938 
0.325581 	 0.007752 	 0.001949 
0.333333 	 0.007752 	 0.001960 
0.341085 	 0.007752 	 0.001970 
0.348837 	 0.007752 	 0.001980 
0.356589 	 0.007752 	 0.001989 
0.364341 	 0.007752 	 0.001998 
0.372093 	 0.007752 	 0.002006 
0.379845 	 0.007752 	 0.002014 
0.387597 	 0.007752 	 0.002022 
0.395349 	 0.007752 	 0.002030 
0.403101 	 0.007752 	 0.002037 
0.410853 	 0.007752 	 0.002043 
0.418605 	 0.007752 	 0.002050 
0.426357 	 0.007752 	 0.002056 
0.434109 	 0.007752 	 0.002062 
0.441860 	 0.007752 	 0.002068 
0.449612 	 0.007752 	 0.002074 
0.457364 	 0.007752 	 0.002080 
0.465116 	 0.007752 	 0.002085 
0.472868 	 0.007752 	 0.002090 
0.480620 	 0.007752 	 0.002095 
0.488372 	 0.007752 	 0.002100 
0.496124 	 0.007752 	 0.002105 
0.503876 	 0.007752 	 0.002109 
0.511628 	 0.007752 	 0.002114 
0.519380 	 0.007752 	 0.002118 
0.527132 	 0.007752 	 0.002123 
0.534884 	 0.007752 	 0.002127 
0.542636 	 0.007752 	 0.002131 
0.550388 	 0.007752 	 0.002135 
0.558140 	 0.007752 	 0.002139 
0.565891 	 0.007752 	 0.002143 
0.573643 	 0.007752 	 0.002147 
0.581395 	 0.007752 	 0.002150 
0.589147 	 0.007752 	 0.002154 
0.596899 	 0.007752 	 0.002157 
0.604651 	 0.007752 	 0.002160 
0.612403 	 0.007752 	 0.002163 
0.620155 	 0.007752 	 0.002166 
0.627907 	 0.007752 	 0.002169 
0.635659 	 0.007752 	 0.002171 
0.643411 	 0.007752 	 0.002173 
0.651163 	 0.007752 	 0.002175 
0.658915 	 0.007752 	 0.002177 
0.666667 	 0.007752 	 0.002178 
0.674419 	 0.007752 	 0.002179 
0.682171 	 0.007752 	 0.002179 
0.689922 	 0.007752 	 0.002179 
0.697674 	 0.007752 	 0.002178 
0.705426 	 0.007752 	 0.002177 
0.713178 	 0.007752 	 0.002175 
0.720930 	 0.007752 	 0.002173 
0.728682 	 0.007752 	 0.002170 
0.736434 	 0.007752 	 0.002166 
0.744186 	 0.007752 	 0.002161 
0.751938 	 0.007752 	 0.002156 
0.759690 	 0.007752 	 0.002149 
0.767442 	 0.007752 	 0.002142 
0.775194 	 0.007752 	 0.002133 
0.782946 	 0.007752 	 0.002123 
0.790698 	 0.007752 	 0.002112 
0.798450 	 0.007752 	 0.002100 
0.806202 	 0.007752 	 0.002087 
0.813953 	 0.007752 	 0.002072 
0.821705 	 0.007752 	 0.002055 
0.829457 	 0.007752 	 0.002037 
0.837209 	 0.007752 	 0.002017 
0.844961 	 0.007752 	 0.001995 
0.852713 	 0.007752 	 0.001971 
0.860465 	 0.007752 	 0.001945 
0.868217 	 0.007752 	 0.001916 
0.875969 	 0.007752 	 0.001885 
0.883721 	 0.007752 	 0.001850 
0.891473 	 0.007752 	 0.001812 
0.899225 	 0.007752 	 0.001769 
0.906977 	 0.007752 	 0.001721 
0.914729 	 0.007752 	 0.001667 
0.922481 	 0.007752 	 0.001605 
0.930233 	 0.007752 	 0.001533 
0.937984 	 0.007752 	 0.001446 
0.945736 	 0.007752 	 0.001340 
0.953488 	 0.007752 	 0.001205 
0.961240 	 0.007752 	 0.001030 
0.968992 	 0.007752 	 0.000800 
0.976744 	 0.007752 	 0.000515 
0.984496 	 0.007752 	 0.000218 
0.992248 	 0.007752 	 0.000039 
0.000000 	 0.015504 	 0.000000 
0.007752 	 0.015504 	 0.000079 
0.015504 	 0.015504 	 0.000174 
0.023256 	 0.015504 	 0.000311 
0.031008 	 0.015504 	 0.000482 
0.038760 	 0.015504 	 0.000669 
0.046512 	 0.015504 	 0.000860 
0.054264 	 0.015504 	 0.001047 
0.062016 	 0.015504 	 0.001225 
0.069767 	 0.015504 	 0.001393 
0.077519 	 0.015504 	 0.001551 
0.085271 	 0.015504 	 0.001699 
0.093023 	 0.015504 	 0.001837 
0.100775 	 0.015504 	 0.001967 
0.108527 	 0.015504 	 0.002089 
0.116279 	 0.015504 	 0.002203 
0.124031 	 0.015504 	 0.002311 
0.131783 	 0.015504 	 0.002412 
0.139535 	 0.015504 	 0.002507 
0.147287 	 0.015504 	 0.002596 
0.155039 	 0.015504 	 0.002680 
0.162791 	 0.015504 	 0.002759 
0.170543 	 0.015504 	 0.002833 
0.178295 	 0.015504 	 0.002903 
0.186047 	 0.015504 	 0.002969 
0.193798 	 0.015504 	 0.003031 
0.201550 	 0.015504 	 0.003089 
0.209302 	 0.015504 	 0.003143 
0.217054 	 0.015504 	 0.003195 
0.224806 	 0.015504 	 0.003243 
0.232558 	 0.015504 	 0.003289 
0.240310 	 0.015504 	 0.003332 
0.248062 	 0.015504 	 0.003373 
0.255814 	 0.015504 	 0.003411 
0.263566 	 0.015504 	 0.003448 
0.271318 	 0.015504 	 0.003482 
0.279070 	 0.015504 	 0.003515 
0.286822 	 0.015504 	 0.003545 
0.294574 	 0.015504 	 0.003575 
0.302326 	 0.015504 	 0.003602 
0.310078 	 0.015504 	 0.003629 
0.317829 	 0.015504 	 0.003654 
0.325581 	 0.015504 	 0.003678 
0.333333 	 0.015504 	 0.003700 
0.341085 	 0.015504 	 0.003722 
0.348837 	 0.015504 	 0.003742 
0.356589 	 0.015504 	 0.003762 
0.364341 	 0.015504 	 0.003781 
0.372093 	 0.015504 	 0.003799 
0.379845 	 0.015504 	 0.003816 
0.387597 	 0.015504 	 0.003832 
0.395349 	 0.015504 	 0.003848 
0.403101 	 0.015504 	 0.003863 
0.410853 	 0.015504 	 0.003878 
0.418605 	 0.015504 	 0.003892 
0.426357 	 0.015504 	 0.003906 
0.434109 	 0.015504 	 0.003919 
0.441860 	 0.015504 	 0.003932 
0.449612 	 0.015504 	 0.003944 
0.457364 	 0.015504 	 0.003956 
0.465116 	 0.015504 	 0.003968 
0.472868 	 0.015504 	 0.003979 
0.480620 	 0.015504 	 0.003990 
0.488372 	 0.015504 	 0.004001 
0.496124 	 0.015504 	 0.004012 
0.503876 	 0.015504 	 0.004022 
0.511628 	 0.015504 	 0.004033 
0.519380 	 0.015504 	 0.004043 
0.527132 	 0.015504 	 0.004053 
0.534884 	 0.015504 	 0.004063 
0.542636 	 0.015504 	 0.004072 
0.550388 	 0.015504 	 0.004082 
0.558140 	 0.015504 	 0.004091 
0.565891 	 0.015504 	 0.004100 
0.573643 	 0.015504 	 0.004109 
0.581395 	 0.015504 	 0.004118 
0.589147 	 0.015504 	 0.004127 
0.596899 	 0.015504 	 0.004135 
0.604651 	 0.015504 	 0.004143 
0.612403 	 0.015504 	 0.004151 
0.620155 	 0.015504 	 0.004158 
0.627907 	 0.015504 	 0.004165 
0.635659 	 0.015504 	 0.004172 
0.643411 	 0.015504 	 0.004178 
0.651163 	 0.015504 	 0.004183 
0.658915 	 0.015504 	 0.004188 
0.666667 	 0.015504 	 0.004192 
0.674419 	 0.015504 	 0.004195 
0.682171 	 0.015504 	 0.004197 
0.689922 	 0.015504 	 0.004198 
0.697674 	 0.015504 	 0.004198 
0.705426 	 0.015504 	 0.004197 
0.713178 	 0.015504 	 0.004194 
0.720930 	 0.015504 	 0.004190 
0.728682 	 0.015504 	 0.004184 
0.736434 	 0.015504 	 0.004177 
0.744186 	 0.015504 	 0.004168 
0.751938 	 0.015504 	 0.004156 
0.759690 	 0.015504 	 0.004143 
0.767442 	 0.015504 	 0.004127 
0.775194 	 0.015504 	 0.004109 
0.782946 	 0.015504 	 0.004089 
0.790698 	 0.015504 	 0.004065 
0.798450 	 0.015504 	 0.004039 
0.806202 	 0.015504 	 0.004010 
0.813953 	 0.015504 	 0.003977 
0.821705 	 0.015504 	 0.003941 
0.829457 	 0.015504 	 0.003901 
0.837209 	 0.015504 	 0.003857 
0.844961 	 0.015504 	 0.003809 
0.852713 	 0.015504 	 0.003756 
0.860465 	 0.015504 	 0.003697 
0.868217 	 0.015504 	 0.003634 
0.875969 	 0.015504 	 0.003564 
0.883721 	 0.015504 	 0.003486 
0.891473 	 0.015504 	 0.003401 
0.899225 	 0.015504 	 0.003306 
0.906977 	 0.015504 	 0.003200 
0.914729 	 0.015504 	 0.003080 
0.922481 	 0.015504 	 0.002942 
0.930233 	 0.015504 	 0.002781 
0.937984 	 0.015504 	 0.002591 
0.945736 	 0.015504 	 0.002359 
0.953488 	 0.015504 	 0.002070 
0.961240 	 0.015504 	 0.001706 
0.968992 	 0.015504 	 0.001255 
0.976744 	 0.015504 	 0.000740 
0.984496 	 0.015504 	 0.000265 
0.992248 	 0.015504 	 0.000029 
0.000000 	 0.023256 	 0.000000 
0.007752 	 0.023256 	 0.000062 
0.015504 	 0.023256 	 0.000149 
0.023256 	 0.023256 	 0.000293 
0.031008 	 0.023256 	 0.000487 
0.038760 	 0.023256 	 0.000714 
0.046512 	 0.023256 	 0.000957 
0.054264 	 0.023256 	 0.001204 
0.062016 	 0.023256 	 0.001447 
0.069767 	 0.023256 	 0.001683 
0.077519 	 0.023256 	 0.001909 
0.085271 	 0.023256 	 0.002126 
0.093023 	 0.023256 	 0.002331 
0.100775 	 0.023256 	 0.002526 
0.108527 	 0.023256 	 0.002711 
0.116279 	 0.023256 	 0.002886 
0.124031 	 0.023256 	 0.003052 
0.131783 	 0.023256 	 0.003208 
0.139535 	 0.023256 	 0.003356 
0.147287 	 0.023256 	 0.003496 
0.155039 	 0.023256 	 0.003627 
0.162791 	 0.023256 	 0.003751 
0.170543 	 0.023256 	 0.003868 
0.178295 	 0.023256 	 0.003978 
0.186047 	 0.023256 	 0.004082 
0.193798 	 0.023256 	 0.004180 
0.201550 	 0.023256 	 0.004272 
0.209302 	 0.023256 	 0.004358 
0.217054 	 0.023256 	 0.004440 
0.224806 	 0.023256 	 0.004517 
0.232558 	 0.023256 	 0.004589 
0.240310 	 0.023256 	 0.004657 
0.248062 	 0.023256 	 0.004722 
0.255814 	 0.023256 	 0.004783 
0.263566 	 0.023256 	 0.004840 
0.271318 	 0.023256 	 0.004894 
0.279070 	 0.023256 	 0.004946 
0.286822 	 0.023256 	 0.004994 
0.294574 	 0.023256 	 0.005040 
0.302326 	 0.023256 	 0.005084 
0.310078 	 0.023256 	 0.005125 
0.317829 	 0.023256 	 0.005165 
0.325581 	 0.023256 	 0.005202 
0.333333 	 0.023256 	 0.005237 
0.341085 	 0.023256 	 0.005271 
0.348837 	 0.023256 	 0.005303 
0.356589 	 0.023256 	 0.005334 
0.364341 	 0.023256 	 0.005364 
0.372093 	 0.023256 	 0.005392 
0.379845 	 0.023256 	 0.005419 
0.387597 	 0.023256 	 0.005444 
0.395349 	 0.023256 	 0.005469 
0.403101 	 0.023256 	 0.005493 
0.410853 	 0.023256 	 0.005516 
0.418605 	 0.023256 	 0.005538 
0.426357 	 0.023256 	 0.005560 
0.434109 	 0.023256 	 0.005580 
0.441860 	 0.023256 	 0.005600 
0.449612 	 0.023256 	 0.005620 
0.457364 	 0.023256 	 0.005639 
0.465116 	 0.023256 	 0.005658 
0.472868 	 0.023256 	 0.005676 
0.480620 	 0.023256 	 0.005694 
0.488372 	 0.023256 	 0.005712 
0.496124 	 0.023256 	 0.005729 
0.503876 	 0.023256 	 0.005746 
0.511628 	 0.023256 	 0.005763 
0.519380 	 0.023256 	 0.005779 
0.527132 	 0.023256 	 0.005796 
0.534884 	 0.023256 	 0.005812 
0.542636 	 0.023256 	 0.005829 
0.550388 	 0.023256 	 0.005845 
0.558140 	 0.023256 	 0.005860 
0.565891 	 0.023256 	 0.005876 
0.573643 	 0.023256 	 0.005892 
0.581395 	 0.023256 	 0.005907 
0.589147 	 0.023256 	 0.005922 
0.596899 	 0.023256 	 0.005936 
0.604651 	 0.023256 	 0.005951 
0.612403 	 0.023256 	 0.005964 
0.620155 	 0.023256 	 0.005978 
0.627907 	 0.023256 	 0.005990 
0.635659 	 0.023256 	 0.006002 
0.643411 	 0.023256 	 0.006014 
0.651163 	 0.023256 	 0.006024 
0.658915 	 0.023256 	 0.006033 
0.666667 	 0.023256 	 0.006041 
0.674419 	 0.023256 	 0.006048 
0.682171 	 0.023256 	 0.006053 
0.689922 	 0.023256 	 0.006056 
0.697674 	 0.023256 	 0.006058 
0.705426 	 0.023256 	 0.006058 
0.713178 	 0.023256 	 0.006056 
0.720930 	 0.023256 	 0.006051 
0.728682 	 0.023256 	 0.006043 
0.736434 	 0.023256 	 0.006033 
0.744186 	 0.023256 	 0.006020 
0.751938 	 0.023256 	 0.006004 
0.759690 	 0.023256 	 0.005984 
0.767442 	 0.023256 	 0.005960 
0.775194 	 0.023256 	 0.005932 
0.782946 	 0.023256 	 0.005901 
0.790698 	 0.023256 	 0.005864 
0.798450 	 0.023256 	 0.005823 
0.806202 	 0.023256 	 0.005777 
0.813953 	 0.023256 	 0.005725 
0.821705 	 0.023256 	 0.005668 
0.829457 	 0.023256 	 0.005604 
0.837209 	 0.023256 	 0.005533 
0.844961 	 0.023256 	 0.005456 
0.852713 	 0.023256 	 0.005371 
0.860465 	 0.023256 	 0.005277 
0.868217 	 0.023256 	 0.005174 
0.875969 	 0.023256 	 0.005060 
0.883721 	 0.023256 	 0.004935 
0.891473 	 0.023256 	 0.004797 
0.899225 	 0.023256 	 0.004644 
0.906977 	 0.023256 	 0.004472 
0.914729 	 0.023256 	 0.004278 
0.922481 	 0.023256 	 0.004056 
0.930233 	 0.023256 	 0.003798 
0.937984 	 0.023256 	 0.003494 
0.945736 	 0.023256 	 0.003129 
0.953488 	 0.023256 	 0.002683 
0.961240 	 0.023256 	 0.002141 
0.968992 	 0.023256 	 0.001502 
0.976744 	 0.023256 	 0.000821 
0.984496 	 0.023256 	 0.000250 
0.992248 	 0.023256 	 0.000009 
0.000000 	 0.031008 	 0.000000 
0.007752 	 0.031008 	 0.000038 
0.015504 	 0.031008 	 0.000108 
0.023256 	 0.031008 	 0.000243 
0.031008 	 0.031008 	 0.000443 
0.038760 	 0.031008 	 0.000689 
0.046512 	 0.031008 	 0.000964 
0.054264 	 0.031008 	 0.001253 
0.062016 	 0.031008 	 0.001546 
0.069767 	 0.031008 	 0.001836 
0.077519 	 0.031008 	 0.002120 
0.085271 	 0.031008 	 0.002395 
0.093023 	 0.031008 	 0.002660 
0.100775 	 0.031008 	 0.002915 
0.108527 	 0.031008 	 0.003158 
0.116279 	 0.031008 	 0.003390 
0.124031 	 0.031008 	 0.003611 
0.131783 	 0.031008 	 0.003820 
0.139535 	 0.031008 	 0.004019 
0.147287 	 0.031008 	 0.004208 
0.155039 	 0.031008 	 0.004386 
0.162791 	 0.031008 	 0.004554 
0.170543 	 0.031008 	 0.004714 
0.178295 	 0.031008 	 0.004864 
0.186047 	 0.031008 	 0.005005 
0.193798 	 0.031008 	 0.005139 
0.201550 	 0.031008 	 0.005265 
0.209302 	 0.031008 	 0.005384 
0.217054 	 0.031008 	 0.005495 
0.224806 	 0.031008 	 0.005601 
0.232558 	 0.031008 	 0.005700 
0.240310 	 0.031008 	 0.005794 
0.248062 	 0.031008 	 0.005882 
0.255814 	 0.031008 	 0.005966 
0.263566 	 0.031008 	 0.006045 
0.271318 	 0.031008 	 0.006119 
0.279070 	 0.031008 	 0.006190 
0.286822 	 0.031008 	 0.006256 
0.294574 	 0.031008 	 0.006319 
0.302326 	 0.031008 	 0.006379 
0.310078 	 0.031008 	 0.006436 
0.317829 	 0.031008 	 0.006490 
0.325581 	 0.031008 	 0.006541 
0.333333 	 0.031008 	 0.006589 
0.341085 	 0.031008 	 0.006636 
0.348837 	 0.031008 	 0.006680 
0.356589 	 0.031008 	 0.006722 
0.364341 	 0.031008 	 0.006762 
0.372093 	 0.031008 	 0.006800 
0.379845 	 0.031008 	 0.006837 
0.387597 	 0.031008 	 0.006872 
0.395349 	 0.031008 	 0.006906 
0.403101 	 0.031008 	 0.006939 
0.410853 	 0.031008 	 0.006970 
0.418605 	 0.031008 	 0.007000 
0.426357 	 0.031008 	 0.007030 
0.434109 	 0.031008 	 0.007058 
0.441860 	 0.031008 	 0.007086 
0.449612 	 0.031008 	 0.007113 
0.457364 	 0.031008 	 0.007139 
0.465116 	 0.031008 	 0.007165 
0.472868 	 0.031008 	 0.007191 
0.480620 	 0.031008 	 0.007216 
0.488372 	 0.031008 	 0.007240 
0.496124 	 0.031008 	 0.007265 
0.503876 	 0.031008 	 0.007289 
0.511628 	 0.031008 	 0.007313 
0.519380 	 0.031008 	 0.007336 
0.527132 	 0.031008 	 0.007360 
0.534884 	 0.031008 	 0.007383 
0.542636 	 0.031008 	 0.007407 
0.550388 	 0.031008 	 0.007430 
0.558140 	 0.031008 	 0.007453 
0.565891 	 0.031008 	 0.007476 
0.573643 	 0.031008 	 0.007499 
0.581395 	 0.031008 	 0.007521 
0.589147 	 0.031008 	 0.007543 
0.596899 	 0.031008 	 0.007565 
0.604651 	 0.031008 	 0.007586 
0.612403 	 0.031008 	 0.007607 
0.620155 	 0.031008 	 0.007628 
0.627907 	 0.031008 	 0.007647 
0.635659 	 0.031008 	 0.007665 
0.643411 	 0.031008 	 0.007683 
0.651163 	 0.031008 	 0.007699 
0.658915 	 0.031008 	 0.007714 
0.666667 	 0.031008 	 0.007727 
0.674419 	 0.031008 	 0.007739 
0.682171 	 0.031008 	 0.007748 
0.689922 	 0.031008 	 0.007755 
0.697674 	 0.031008 	 0.007760 
0.705426 	 0.031008 	 0.007762 
0.713178 	 0.031008 	 0.007761 
0.720930 	 0.031008 	 0.007756 
0.728682 	 0.031008 	 0.007748 
0.736434 	 0.031008 	 0.007736 
0.744186 	 0.031008 	 0.007720 
0.751938 	 0.031008 	 0.007699 
0.759690 	 0.031008 	 0.007673 
0.767442 	 0.031008 	 0.007642 
0.775194 	 0.031008 	 0.007605 
0.782946 	 0.031008 	 0.007563 
0.790698 	 0.031008 	 0.007513 
0.798450 	 0.031008 	 0.007457 
0.806202 	 0.031008 	 0.007394 
0.813953 	 0.031008 	 0.007322 
0.821705 	 0.031008 	 0.007243 
0.829457 	 0.031008 	 0.007154 
0.837209 	 0.031008 	 0.007056 
0.844961 	 0.031008 	 0.006948 
0.852713 	 0.031008 	 0.006828 
0.860465 	 0.031008 	 0.006697 
0.868217 	 0.031008 	 0.006552 
0.875969 	 0.031008 	 0.006393 
0.883721 	 0.031008 	 0.006217 
0.891473 	 0.031008 	 0.006022 
0.899225 	 0.031008 	 0.005806 
0.906977 	 0.031008 	 0.005564 
0.914729 	 0.031008 	 0.005292 
0.922481 	 0.031008 	 0.004981 
0.930233 	 0.031008 	 0.004622 
0.937984 	 0.031008 	 0.004202 
0.945736 	 0.031008 	 0.003704 
0.953488 	 0.031008 	 0.003110 
0.961240 	 0.031008 	 0.002410 
0.968992 	 0.031008 	 0.001622 
0.976744 	 0.031008 	 0.000830 
0.984496 	 0.031008 	 0.000215 
0.992248 	 0.031008 	 -0.000010 
0.000000 	 0.038760 	 0.000000 
0.007752 	 0.038760 	 0.000015 
0.015504 	 0.038760 	 0.000065 
0.023256 	 0.038760 	 0.000187 
0.031008 	 0.038760 	 0.000383 
0.038760 	 0.038760 	 0.000637 
0.046512 	 0.038760 	 0.000932 
0.054264 	 0.038760 	 0.001250 
0.062016 	 0.038760 	 0.001580 
0.069767 	 0.038760 	 0.001913 
0.077519 	 0.038760 	 0.002245 
0.085271 	 0.038760 	 0.002570 
0.093023 	 0.038760 	 0.002887 
0.100775 	 0.038760 	 0.003193 
0.108527 	 0.038760 	 0.003488 
0.116279 	 0.038760 	 0.003772 
0.124031 	 0.038760 	 0.004043 
0.131783 	 0.038760 	 0.004301 
0.139535 	 0.038760 	 0.004547 
0.147287 	 0.038760 	 0.004781 
0.155039 	 0.038760 	 0.005003 
0.162791 	 0.038760 	 0.005213 
0.170543 	 0.038760 	 0.005412 
0.178295 	 0.038760 	 0.005600 
0.186047 	 0.038760 	 0.005778 
0.193798 	 0.038760 	 0.005946 
0.201550 	 0.038760 	 0.006104 
0.209302 	 0.038760 	 0.006253 
0.217054 	 0.038760 	 0.006394 
0.224806 	 0.038760 	 0.006527 
0.232558 	 0.038760 	 0.006652 
0.240310 	 0.038760 	 0.006770 
0.248062 	 0.038760 	 0.006882 
0.255814 	 0.038760 	 0.006987 
0.263566 	 0.038760 	 0.007087 
0.271318 	 0.038760 	 0.007181 
0.279070 	 0.038760 	 0.007270 
0.286822 	 0.038760 	 0.007354 
0.294574 	 0.038760 	 0.007433 
0.302326 	 0.038760 	 0.007509 
0.310078 	 0.038760 	 0.007580 
0.317829 	 0.038760 	 0.007648 
0.325581 	 0.038760 	 0.007712 
0.333333 	 0.038760 	 0.007774 
0.341085 	 0.038760 	 0.007832 
0.348837 	 0.038760 	 0.007887 
0.356589 	 0.038760 	 0.007940 
0.364341 	 0.038760 	 0.007991 
0.372093 	 0.038760 	 0.008039 
0.379845 	 0.038760 	 0.008085 
0.387597 	 0.038760 	 0.008130 
0.395349 	 0.038760 	 0.008172 
0.403101 	 0.038760 	 0.008213 
0.410853 	 0.038760 	 0.008253 
0.418605 	 0.038760 	 0.008291 
0.426357 	 0.038760 	 0.008328 
0.434109 	 0.038760 	 0.008365 
0.441860 	 0.038760 	 0.008400 
0.449612 	 0.038760 	 0.008434 
0.457364 	 0.038760 	 0.008468 
0.465116 	 0.038760 	 0.008501 
0.472868 	 0.038760 	 0.008533 
0.480620 	 0.038760 	 0.008565 
0.488372 	 0.038760 	 0.008597 
0.496124 	 0.038760 	 0.008629 
0.503876 	 0.038760 	 0.008660 
0.511628 	 0.038760 	 0.008691 
0.519380 	 0.038760 	 0.008722 
0.527132 	 0.038760 	 0.008753 
0.534884 	 0.038760 	 0.008784 
0.542636 	 0.038760 	 0.008815 
0.550388 	 0.038760 	 0.008845 
0.558140 	 0.038760 	 0.008876 
0.565891 	 0.038760 	 0.008907 
0.573643 	 0.038760 	 0.008937 
0.581395 	 0.038760 	 0.008967 
0.589147 	 0.038760 	 0.008997 
0.596899 	 0.038760 	 0.009027 
0.604651 	 0.038760 	 0.009056 
0.612403 	 0.038760 	 0.009085 
0.620155 	 0.038760 	 0.009113 
0.627907 	 0.038760 	 0.009140 
0.635659 	 0.038760 	 0.009166 
0.643411 	 0.038760 	 0.009190 
0.651163 	 0.038760 	 0.009213 
0.658915 	 0.038760 	 0.009235 
0.666667 	 0.038760 	 0.009254 
0.674419 	 0.038760 	 0.009272 
0.682171 	 0.038760 	 0.009286 
0.689922 	 0.038760 	 0.009298 
0.697674 	 0.038760 	 0.009306 
0.705426 	 0.038760 	 0.009312 
0.713178 	 0.038760 	 0.009313 
0.720930 	 0.038760 	 0.009309 
0.728682 	 0.038760 	 0.009302 
0.736434 	 0.038760 	 0.009289 
0.744186 	 0.038760 	 0.009270 
0.751938 	 0.038760 	 0.009245 
0.759690 	 0.038760 	 0.009215 
0.767442 	 0.038760 	 0.009177 
0.775194 	 0.038760 	 0.009131 
0.782946 	 0.038760 	 0.009078 
0.790698 	 0.038760 	 0.009016 
0.798450 	 0.038760 	 0.008946 
0.806202 	 0.038760 	 0.008865 
0.813953 	 0.038760 	 0.008774 
0.821705 	 0.038760 	 0.008673 
0.829457 	 0.038760 	 0.008559 
0.837209 	 0.038760 	 0.008433 
0.844961 	 0.038760 	 0.008293 
0.852713 	 0.038760 	 0.008139 
0.860465 	 0.038760 	 0.007968 
0.868217 	 0.038760 	 0.007781 
0.875969 	 0.038760 	 0.007574 
0.883721 	 0.038760 	 0.007345 
0.891473 	 0.038760 	 0.007093 
0.899225 	 0.038760 	 0.006812 
0.906977 	 0.038760 	 0.006498 
0.914729 	 0.038760 	 0.006145 
0.922481 	 0.038760 	 0.005744 
0.930233 	 0.038760 	 0.005284 
0.937984 	 0.038760 	 0.004750 
0.945736 	 0.038760 	 0.004126 
0.953488 	 0.038760 	 0.003398 
0.961240 	 0.038760 	 0.002565 
0.968992 	 0.038760 	 0.001664 
0.976744 	 0.038760 	 0.000802 
0.984496 	 0.038760 	 0.000174 
0.992248 	 0.038760 	 -0.000026 
0.000000 	 0.046512 	 0.000000 
0.007752 	 0.046512 	 -0.000004 
0.015504 	 0.046512 	 0.000029 
0.023256 	 0.046512 	 0.000136 
0.031008 	 0.046512 	 0.000325 
0.038760 	 0.046512 	 0.000582 
0.046512 	 0.046512 	 0.000889 
0.054264 	 0.046512 	 0.001228 
0.062016 	 0.046512 	 0.001587 
0.069767 	 0.046512 	 0.001954 
0.077519 	 0.046512 	 0.002325 
0.085271 	 0.046512 	 0.002692 
0.093023 	 0.046512 	 0.003053 
0.100775 	 0.046512 	 0.003404 
0.108527 	 0.046512 	 0.003745 
0.116279 	 0.046512 	 0.004074 
0.124031 	 0.046512 	 0.004389 
0.131783 	 0.046512 	 0.004691 
0.139535 	 0.046512 	 0.004980 
0.147287 	 0.046512 	 0.005255 
0.155039 	 0.046512 	 0.005516 
0.162791 	 0.046512 	 0.005764 
0.170543 	 0.046512 	 0.005999 
0.178295 	 0.046512 	 0.006221 
0.186047 	 0.046512 	 0.006432 
0.193798 	 0.046512 	 0.006631 
0.201550 	 0.046512 	 0.006818 
0.209302 	 0.046512 	 0.006996 
0.217054 	 0.046512 	 0.007163 
0.224806 	 0.046512 	 0.007321 
0.232558 	 0.046512 	 0.007470 
0.240310 	 0.046512 	 0.007611 
0.248062 	 0.046512 	 0.007744 
0.255814 	 0.046512 	 0.007869 
0.263566 	 0.046512 	 0.007988 
0.271318 	 0.046512 	 0.008100 
0.279070 	 0.046512 	 0.008206 
0.286822 	 0.046512 	 0.008306 
0.294574 	 0.046512 	 0.008401 
0.302326 	 0.046512 	 0.008491 
0.310078 	 0.046512 	 0.008576 
0.317829 	 0.046512 	 0.008657 
0.325581 	 0.046512 	 0.008733 
0.333333 	 0.046512 	 0.008806 
0.341085 	 0.046512 	 0.008876 
0.348837 	 0.046512 	 0.008942 
0.356589 	 0.046512 	 0.009004 
0.364341 	 0.046512 	 0.009065 
0.372093 	 0.046512 	 0.009122 
0.379845 	 0.046512 	 0.009177 
0.387597 	 0.046512 	 0.009230 
0.395349 	 0.046512 	 0.009281 
0.403101 	 0.046512 	 0.009330 
0.410853 	 0.046512 	 0.009377 
0.418605 	 0.046512 	 0.009423 
0.426357 	 0.046512 	 0.009467 
0.434109 	 0.046512 	 0.009510 
0.441860 	 0.046512 	 0.009553 
0.449612 	 0.046512 	 0.009594 
0.457364 	 0.046512 	 0.009635 
0.465116 	 0.046512 	 0.009675 
0.472868 	 0.046512 	 0.009714 
0.480620 	 0.046512 	 0.009753 
0.488372 	 0.046512 	 0.009792 
0.496124 	 0.046512 	 0.009830 
0.503876 	 0.046512 	 0.009868 
0.511628 	 0.046512 	 0.009907 
0.519380 	 0.046512 	 0.009945 
0.527132 	 0.046512 	 0.009983 
0.534884 	 0.046512 	 0.010021 
0.542636 	 0.046512 	 0.010060 
0.550388 	 0.046512 	 0.010098 
0.558140 	 0.046512 	 0.010137 
0.565891 	 0.046512 	 0.010175 
0.573643 	 0.046512 	 0.010214 
0.581395 	 0.046512 	 0.010252 
0.589147 	 0.046512 	 0.010291 
0.596899 	 0.046512 	 0.010329 
0.604651 	 0.046512 	 0.010366 
0.612403 	 0.046512 	 0.010403 
0.620155 	 0.046512 	 0.010439 
0.627907 	 0.046512 	 0.010474 
0.635659 	 0.046512 	 0.010508 
0.643411 	 0.046512 	 0.010541 
0.651163 	 0.046512 	 0.010572 
0.658915 	 0.046512 	 0.010601 
0.666667 	 0.046512 	 0.010627 
0.674419 	 0.046512 	 0.010651 
0.682171 	 0.046512 	 0.010671 
0.689922 	 0.046512 	 0.010689 
0.697674 	 0.046512 	 0.010702 
0.705426 	 0.046512 	 0.010711 
0.713178 	 0.046512 	 0.010715 
0.720930 	 0.046512 	 0.010714 
0.728682 	 0.046512 	 0.010707 
0.736434 	 0.046512 	 0.010694 
0.744186 	 0.046512 	 0.010674 
0.751938 	 0.046512 	 0.010647 
0.759690 	 0.046512 	 0.010611 
0.767442 	 0.046512 	 0.010567 
0.775194 	 0.046512 	 0.010514 
0.782946 	 0.046512 	 0.010451 
0.790698 	 0.046512 	 0.010378 
0.798450 	 0.046512 	 0.010293 
0.806202 	 0.046512 	 0.010196 
0.813953 	 0.046512 	 0.010086 
0.821705 	 0.046512 	 0.009962 
0.829457 	 0.046512 	 0.009824 
0.837209 	 0.046512 	 0.009670 
0.844961 	 0.046512 	 0.009499 
0.852713 	 0.046512 	 0.009309 
0.860465 	 0.046512 	 0.009100 
0.868217 	 0.046512 	 0.008869 
0.875969 	 0.046512 	 0.008614 
0.883721 	 0.046512 	 0.008333 
0.891473 	 0.046512 	 0.008021 
0.899225 	 0.046512 	 0.007676 
0.906977 	 0.046512 	 0.007290 
0.914729 	 0.046512 	 0.006857 
0.922481 	 0.046512 	 0.006367 
0.930233 	 0.046512 	 0.005808 
0.937984 	 0.046512 	 0.005166 
0.945736 	 0.046512 	 0.004426 
0.953488 	 0.046512 	 0.003580 
0.961240 	 0.046512 	 0.002640 
0.968992 	 0.046512 	 0.001657 
0.976744 	 0.046512 	 0.000756 
0.984496 	 0.046512 	 0.000132 
0.992248 	 0.046512 	 -0.000041 
0.000000 	 0.054264 	 0.000000 
0.007752 	 0.054264 	 -0.000018 
0.015504 	 0.054264 	 -0.000000 