VARIABLES = "Y", "U"
ZONE T = "BLOCK1", I = 129, F = POINT

 0.000000 	 0.297492 
 0.007752 	 0.271201 
 0.015504 	 0.245634 
 0.023256 	 0.221075 
 0.031008 	 0.197677 
 0.038760 	 0.175496 
 0.046512 	 0.154514 
 0.054264 	 0.134671 
 0.062016 	 0.115872 
 0.069767 	 0.098014 
 0.077519 	 0.080988 
 0.085271 	 0.064691 
 0.093023 	 0.049029 
 0.100775 	 0.033920 
 0.108527 	 0.019294 
 0.116279 	 0.005090 
 0.124031 	 -0.008740 
 0.131783 	 -0.022236 
 0.139535 	 -0.035431 
 0.147287 	 -0.048347 
 0.155039 	 -0.061003 
 0.162791 	 -0.073410 
 0.170543 	 -0.085573 
 0.178295 	 -0.097495 
 0.186047 	 -0.109175 
 0.193798 	 -0.120612 
 0.201550 	 -0.131806 
 0.209302 	 -0.142759 
 0.217054 	 -0.153480 
 0.224806 	 -0.163981 
 0.232558 	 -0.174280 
 0.240310 	 -0.184398 
 0.248062 	 -0.194356 
 0.255814 	 -0.204172 
 0.263566 	 -0.213855 
 0.271318 	 -0.223399 
 0.279070 	 -0.232778 
 0.286822 	 -0.241938 
 0.294574 	 -0.250801 
 0.302326 	 -0.259260 
 0.310078 	 -0.267182 
 0.317829 	 -0.274422 
 0.325581 	 -0.280823 
 0.333333 	 -0.286232 
 0.341085 	 -0.290505 
 0.348837 	 -0.293524 
 0.356589 	 -0.295203 
 0.364341 	 -0.295493 
 0.372093 	 -0.294390 
 0.379845 	 -0.291927 
 0.387597 	 -0.288178 
 0.395349 	 -0.283249 
 0.403101 	 -0.277270 
 0.410853 	 -0.270386 
 0.418605 	 -0.262752 
 0.426357 	 -0.254521 
 0.434109 	 -0.245841 
 0.441860 	 -0.236846 
 0.449612 	 -0.227652 
 0.457364 	 -0.218357 
 0.465116 	 -0.209039 
 0.472868 	 -0.199758 
 0.480620 	 -0.190556 
 0.488372 	 -0.181460 
 0.496124 	 -0.172487 
 0.503876 	 -0.163640 
 0.511628 	 -0.154916 
 0.519380 	 -0.146308 
 0.527132 	 -0.137802 
 0.534884 	 -0.129384 
 0.542636 	 -0.121040 
 0.550388 	 -0.112755 
 0.558140 	 -0.104513 
 0.565891 	 -0.096302 
 0.573643 	 -0.088109 
 0.581395 	 -0.079925 
 0.589147 	 -0.071740 
 0.596899 	 -0.063547 
 0.604651 	 -0.055339 
 0.612403 	 -0.047110 
 0.620155 	 -0.038856 
 0.627907 	 -0.030572 
 0.635659 	 -0.022253 
 0.643411 	 -0.013898 
 0.651163 	 -0.005501 
 0.658915 	 0.002941 
 0.666667 	 0.011430 
 0.674419 	 0.019970 
 0.682171 	 0.028564 
 0.689922 	 0.037216 
 0.697674 	 0.045929 
 0.705426 	 0.054704 
 0.713178 	 0.063545 
 0.720930 	 0.072452 
 0.728682 	 0.081427 
 0.736434 	 0.090468 
 0.744186 	 0.099573 
 0.751938 	 0.108739 
 0.759690 	 0.117960 
 0.767442 	 0.127228 
 0.775194 	 0.136532 
 0.782946 	 0.145859 
 0.790698 	 0.155193 
 0.798450 	 0.164514 
 0.806202 	 0.173801 
 0.813953 	 0.183027 
 0.821705 	 0.192163 
 0.829457 	 0.201181 
 0.837209 	 0.210046 
 0.844961 	 0.218728 
 0.852713 	 0.227195 
 0.860465 	 0.235427 
 0.868217 	 0.243411 
 0.875969 	 0.251163 
 0.883721 	 0.258736 
 0.891473 	 0.266242 
 0.899225 	 0.273886 
 0.906977 	 0.282005 
 0.914729 	 0.291106 
 0.922481 	 0.301902 
 0.930233 	 0.315328 
 0.937984 	 0.332523 
 0.945736 	 0.354742 
 0.953488 	 0.383195 
 0.961240 	 0.418789 
 0.968992 	 0.461800 
 0.976744 	 0.511519 
 0.984496 	 0.565991 
 0.992248 	 0.622042 
