VARIABLES = "X", "V"
ZONE T = "BLOCK1", I = 129, F = POINT

 0.000000 	 0.011972 
 0.007752 	 0.032323 
 0.015504 	 0.049405 
 0.023256 	 0.063637 
 0.031008 	 0.075488 
 0.038760 	 0.085428 
 0.046512 	 0.093896 
 0.054264 	 0.101272 
 0.062016 	 0.107865 
 0.069767 	 0.113907 
 0.077519 	 0.119560 
 0.085271 	 0.124926 
 0.093023 	 0.130061 
 0.100775 	 0.134984 
 0.108527 	 0.139698 
 0.116279 	 0.144190 
 0.124031 	 0.148441 
 0.131783 	 0.152428 
 0.139535 	 0.156129 
 0.147287 	 0.159523 
 0.155039 	 0.162589 
 0.162791 	 0.165306 
 0.170543 	 0.167658 
 0.178295 	 0.169629 
 0.186047 	 0.171205 
 0.193798 	 0.172375 
 0.201550 	 0.173131 
 0.209302 	 0.173467 
 0.217054 	 0.173381 
 0.224806 	 0.172873 
 0.232558 	 0.171949 
 0.240310 	 0.170615 
 0.248062 	 0.168883 
 0.255814 	 0.166765 
 0.263566 	 0.164278 
 0.271318 	 0.161442 
 0.279070 	 0.158277 
 0.286822 	 0.154805 
 0.294574 	 0.151052 
 0.302326 	 0.147041 
 0.310078 	 0.142798 
 0.317829 	 0.138348 
 0.325581 	 0.133716 
 0.333333 	 0.128925 
 0.341085 	 0.123999 
 0.348837 	 0.118959 
 0.356589 	 0.113826 
 0.364341 	 0.108617 
 0.372093 	 0.103349 
 0.379845 	 0.098038 
 0.387597 	 0.092696 
 0.395349 	 0.087335 
 0.403101 	 0.081963 
 0.410853 	 0.076590 
 0.418605 	 0.071222 
 0.426357 	 0.065864 
 0.434109 	 0.060520 
 0.441860 	 0.055192 
 0.449612 	 0.049883 
 0.457364 	 0.044594 
 0.465116 	 0.039325 
 0.472868 	 0.034077 
 0.480620 	 0.028847 
 0.488372 	 0.023636 
 0.496124 	 0.018442 
 0.503876 	 0.013263 
 0.511628 	 0.008097 
 0.519380 	 0.002943 
 0.527132 	 -0.002203 
 0.534884 	 -0.007342 
 0.542636 	 -0.012477 
 0.550388 	 -0.017611 
 0.558140 	 -0.022746 
 0.565891 	 -0.027886 
 0.573643 	 -0.033034 
 0.581395 	 -0.038194 
 0.589147 	 -0.043370 
 0.596899 	 -0.048567 
 0.604651 	 -0.053790 
 0.612403 	 -0.059044 
 0.620155 	 -0.064337 
 0.627907 	 -0.069676 
 0.635659 	 -0.075069 
 0.643411 	 -0.080526 
 0.651163 	 -0.086058 
 0.658915 	 -0.091676 
 0.666667 	 -0.097394 
 0.674419 	 -0.103226 
 0.682171 	 -0.109187 
 0.689922 	 -0.115292 
 0.697674 	 -0.121560 
 0.705426 	 -0.128005 
 0.713178 	 -0.134643 
 0.720930 	 -0.141487 
 0.728682 	 -0.148547 
 0.736434 	 -0.155828 
 0.744186 	 -0.163328 
 0.751938 	 -0.171033 
 0.759690 	 -0.178917 
 0.767442 	 -0.186941 
 0.775194 	 -0.195041 
 0.782946 	 -0.203134 
 0.790698 	 -0.211108 
 0.798450 	 -0.218821 
 0.806202 	 -0.226103 
 0.813953 	 -0.232749 
 0.821705 	 -0.238528 
 0.829457 	 -0.243182 
 0.837209 	 -0.246432 
 0.844961 	 -0.247984 
 0.852713 	 -0.247535 
 0.860465 	 -0.244795 
 0.868217 	 -0.239533 
 0.875969 	 -0.231594 
 0.883721 	 -0.220941 
 0.891473 	 -0.207667 
 0.899225 	 -0.192005 
 0.906977 	 -0.174317 
 0.914729 	 -0.155080 
 0.922481 	 -0.134854 
 0.930233 	 -0.114250 
 0.937984 	 -0.093887 
 0.945736 	 -0.074365 
 0.953488 	 -0.056233 
 0.961240 	 -0.039975 
 0.968992 	 -0.026000 
 0.976744 	 -0.014654 
 0.984496 	 -0.006222 
 0.992248 	 -0.000949 
