VARIABLES ="X", "Y", "U", "V"
ZONE T = "BLOCK1", I = 129, J = 129, F = POINT

0.000000 	 0.000000 	 0.000000 	 0.000000 
0.007752 	 0.000000 	 0.010524 	 0.000000 
0.015504 	 0.000000 	 0.036461 	 0.000000 
0.023256 	 0.000000 	 0.066229 	 0.000000 
0.031008 	 0.000000 	 0.093430 	 0.000000 
0.038760 	 0.000000 	 0.116265 	 0.000000 
0.046512 	 0.000000 	 0.134961 	 0.000000 
0.054264 	 0.000000 	 0.150284 	 0.000000 
0.062016 	 0.000000 	 0.163002 	 0.000000 
0.069767 	 0.000000 	 0.173731 	 0.000000 
0.077519 	 0.000000 	 0.182935 	 0.000000 
0.085271 	 0.000000 	 0.190955 	 0.000000 
0.093023 	 0.000000 	 0.198038 	 0.000000 
0.100775 	 0.000000 	 0.204372 	 0.000000 
0.108527 	 0.000000 	 0.210094 	 0.000000 
0.116279 	 0.000000 	 0.215308 	 0.000000 
0.124031 	 0.000000 	 0.220093 	 0.000000 
0.131783 	 0.000000 	 0.224512 	 0.000000 
0.139535 	 0.000000 	 0.228613 	 0.000000 
0.147287 	 0.000000 	 0.232437 	 0.000000 
0.155039 	 0.000000 	 0.236014 	 0.000000 
0.162791 	 0.000000 	 0.239373 	 0.000000 
0.170543 	 0.000000 	 0.242535 	 0.000000 
0.178295 	 0.000000 	 0.245517 	 0.000000 
0.186047 	 0.000000 	 0.248338 	 0.000000 
0.193798 	 0.000000 	 0.251010 	 0.000000 
0.201550 	 0.000000 	 0.253546 	 0.000000 
0.209302 	 0.000000 	 0.255956 	 0.000000 
0.217054 	 0.000000 	 0.258250 	 0.000000 
0.224806 	 0.000000 	 0.260435 	 0.000000 
0.232558 	 0.000000 	 0.262517 	 0.000000 
0.240310 	 0.000000 	 0.264504 	 0.000000 
0.248062 	 0.000000 	 0.266399 	 0.000000 
0.255814 	 0.000000 	 0.268210 	 0.000000 
0.263566 	 0.000000 	 0.269940 	 0.000000 
0.271318 	 0.000000 	 0.271595 	 0.000000 
0.279070 	 0.000000 	 0.273177 	 0.000000 
0.286822 	 0.000000 	 0.274690 	 0.000000 
0.294574 	 0.000000 	 0.276138 	 0.000000 
0.302326 	 0.000000 	 0.277522 	 0.000000 
0.310078 	 0.000000 	 0.278847 	 0.000000 
0.317829 	 0.000000 	 0.280113 	 0.000000 
0.325581 	 0.000000 	 0.281324 	 0.000000 
0.333333 	 0.000000 	 0.282482 	 0.000000 
0.341085 	 0.000000 	 0.283588 	 0.000000 
0.348837 	 0.000000 	 0.284645 	 0.000000 
0.356589 	 0.000000 	 0.285655 	 0.000000 
0.364341 	 0.000000 	 0.286618 	 0.000000 
0.372093 	 0.000000 	 0.287537 	 0.000000 
0.379845 	 0.000000 	 0.288414 	 0.000000 
0.387597 	 0.000000 	 0.289251 	 0.000000 
0.395349 	 0.000000 	 0.290048 	 0.000000 
0.403101 	 0.000000 	 0.290807 	 0.000000 
0.410853 	 0.000000 	 0.291530 	 0.000000 
0.418605 	 0.000000 	 0.292218 	 0.000000 
0.426357 	 0.000000 	 0.292873 	 0.000000 
0.434109 	 0.000000 	 0.293496 	 0.000000 
0.441860 	 0.000000 	 0.294089 	 0.000000 
0.449612 	 0.000000 	 0.294653 	 0.000000 
0.457364 	 0.000000 	 0.295189 	 0.000000 
0.465116 	 0.000000 	 0.295698 	 0.000000 
0.472868 	 0.000000 	 0.296182 	 0.000000 
0.480620 	 0.000000 	 0.296641 	 0.000000 
0.488372 	 0.000000 	 0.297078 	 0.000000 
0.496124 	 0.000000 	 0.297492 	 0.000000 
0.503876 	 0.000000 	 0.297885 	 0.000000 
0.511628 	 0.000000 	 0.298257 	 0.000000 
0.519380 	 0.000000 	 0.298610 	 0.000000 
0.527132 	 0.000000 	 0.298944 	 0.000000 
0.534884 	 0.000000 	 0.299259 	 0.000000 
0.542636 	 0.000000 	 0.299556 	 0.000000 
0.550388 	 0.000000 	 0.299836 	 0.000000 
0.558140 	 0.000000 	 0.300098 	 0.000000 
0.565891 	 0.000000 	 0.300343 	 0.000000 
0.573643 	 0.000000 	 0.300570 	 0.000000 
0.581395 	 0.000000 	 0.300780 	 0.000000 
0.589147 	 0.000000 	 0.300972 	 0.000000 
0.596899 	 0.000000 	 0.301145 	 0.000000 
0.604651 	 0.000000 	 0.301299 	 0.000000 
0.612403 	 0.000000 	 0.301433 	 0.000000 
0.620155 	 0.000000 	 0.301547 	 0.000000 
0.627907 	 0.000000 	 0.301638 	 0.000000 
0.635659 	 0.000000 	 0.301706 	 0.000000 
0.643411 	 0.000000 	 0.301749 	 0.000000 
0.651163 	 0.000000 	 0.301766 	 0.000000 
0.658915 	 0.000000 	 0.301755 	 0.000000 
0.666667 	 0.000000 	 0.301713 	 0.000000 
0.674419 	 0.000000 	 0.301639 	 0.000000 
0.682171 	 0.000000 	 0.301531 	 0.000000 
0.689922 	 0.000000 	 0.301385 	 0.000000 
0.697674 	 0.000000 	 0.301199 	 0.000000 
0.705426 	 0.000000 	 0.300970 	 0.000000 
0.713178 	 0.000000 	 0.300695 	 0.000000 
0.720930 	 0.000000 	 0.300371 	 0.000000 
0.728682 	 0.000000 	 0.299994 	 0.000000 
0.736434 	 0.000000 	 0.299561 	 0.000000 
0.744186 	 0.000000 	 0.299068 	 0.000000 
0.751938 	 0.000000 	 0.298510 	 0.000000 
0.759690 	 0.000000 	 0.297884 	 0.000000 
0.767442 	 0.000000 	 0.297185 	 0.000000 
0.775194 	 0.000000 	 0.296407 	 0.000000 
0.782946 	 0.000000 	 0.295546 	 0.000000 
0.790698 	 0.000000 	 0.294596 	 0.000000 
0.798450 	 0.000000 	 0.293551 	 0.000000 
0.806202 	 0.000000 	 0.292403 	 0.000000 
0.813953 	 0.000000 	 0.291145 	 0.000000 
0.821705 	 0.000000 	 0.289768 	 0.000000 
0.829457 	 0.000000 	 0.288263 	 0.000000 
0.837209 	 0.000000 	 0.286620 	 0.000000 
0.844961 	 0.000000 	 0.284824 	 0.000000 
0.852713 	 0.000000 	 0.282864 	 0.000000 
0.860465 	 0.000000 	 0.280719 	 0.000000 
0.868217 	 0.000000 	 0.278369 	 0.000000 
0.875969 	 0.000000 	 0.275789 	 0.000000 
0.883721 	 0.000000 	 0.272948 	 0.000000 
0.891473 	 0.000000 	 0.269806 	 0.000000 
0.899225 	 0.000000 	 0.266312 	 0.000000 
0.906977 	 0.000000 	 0.262399 	 0.000000 
0.914729 	 0.000000 	 0.257976 	 0.000000 
0.922481 	 0.000000 	 0.252919 	 0.000000 
0.930233 	 0.000000 	 0.247061 	 0.000000 
0.937984 	 0.000000 	 0.240148 	 0.000000 
0.945736 	 0.000000 	 0.231791 	 0.000000 
0.953488 	 0.000000 	 0.221363 	 0.000000 
0.961240 	 0.000000 	 0.207792 	 0.000000 
0.968992 	 0.000000 	 0.189151 	 0.000000 
0.976744 	 0.000000 	 0.161913 	 0.000000 
0.984496 	 0.000000 	 0.120398 	 0.000000 
0.992248 	 0.000000 	 0.060267 	 0.000000 
0.000000 	 0.007752 	 0.000000 	 -0.010524 
0.007752 	 0.007752 	 0.005036 	 -0.025937 
0.015504 	 0.007752 	 0.013128 	 -0.029768 
0.023256 	 0.007752 	 0.024724 	 -0.027201 
0.031008 	 0.007752 	 0.038880 	 -0.022835 
0.038760 	 0.007752 	 0.053973 	 -0.018696 
0.046512 	 0.007752 	 0.068795 	 -0.015324 
0.054264 	 0.007752 	 0.082738 	 -0.012718 
0.062016 	 0.007752 	 0.095590 	 -0.010729 
0.069767 	 0.007752 	 0.107349 	 -0.009204 
0.077519 	 0.007752 	 0.118103 	 -0.008019 
0.085271 	 0.007752 	 0.127960 	 -0.007084 
0.093023 	 0.007752 	 0.137029 	 -0.006334 
0.100775 	 0.007752 	 0.145403 	 -0.005722 
0.108527 	 0.007752 	 0.153164 	 -0.005214 
0.116279 	 0.007752 	 0.160376 	 -0.004785 
0.124031 	 0.007752 	 0.167095 	 -0.004419 
0.131783 	 0.007752 	 0.173368 	 -0.004101 
0.139535 	 0.007752 	 0.179232 	 -0.003823 
0.147287 	 0.007752 	 0.184720 	 -0.003578 
0.155039 	 0.007752 	 0.189863 	 -0.003359 
0.162791 	 0.007752 	 0.194684 	 -0.003162 
0.170543 	 0.007752 	 0.199208 	 -0.002983 
0.178295 	 0.007752 	 0.203457 	 -0.002820 
0.186047 	 0.007752 	 0.207448 	 -0.002672 
0.193798 	 0.007752 	 0.211200 	 -0.002536 
0.201550 	 0.007752 	 0.214730 	 -0.002410 
0.209302 	 0.007752 	 0.218054 	 -0.002294 
0.217054 	 0.007752 	 0.221184 	 -0.002185 
0.224806 	 0.007752 	 0.224136 	 -0.002082 
0.232558 	 0.007752 	 0.226922 	 -0.001986 
0.240310 	 0.007752 	 0.229552 	 -0.001896 
0.248062 	 0.007752 	 0.232038 	 -0.001811 
0.255814 	 0.007752 	 0.234389 	 -0.001730 
0.263566 	 0.007752 	 0.236614 	 -0.001654 
0.271318 	 0.007752 	 0.238722 	 -0.001582 
0.279070 	 0.007752 	 0.240720 	 -0.001513 
0.286822 	 0.007752 	 0.242615 	 -0.001448 
0.294574 	 0.007752 	 0.244415 	 -0.001385 
0.302326 	 0.007752 	 0.246125 	 -0.001324 
0.310078 	 0.007752 	 0.247751 	 -0.001267 
0.317829 	 0.007752 	 0.249298 	 -0.001211 
0.325581 	 0.007752 	 0.250771 	 -0.001158 
0.333333 	 0.007752 	 0.252174 	 -0.001106 
0.341085 	 0.007752 	 0.253512 	 -0.001057 
0.348837 	 0.007752 	 0.254788 	 -0.001009 
0.356589 	 0.007752 	 0.256006 	 -0.000963 
0.364341 	 0.007752 	 0.257169 	 -0.000919 
0.372093 	 0.007752 	 0.258282 	 -0.000877 
0.379845 	 0.007752 	 0.259346 	 -0.000836 
0.387597 	 0.007752 	 0.260365 	 -0.000797 
0.395349 	 0.007752 	 0.261341 	 -0.000759 
0.403101 	 0.007752 	 0.262277 	 -0.000723 
0.410853 	 0.007752 	 0.263175 	 -0.000688 
0.418605 	 0.007752 	 0.264039 	 -0.000655 
0.426357 	 0.007752 	 0.264869 	 -0.000623 
0.434109 	 0.007752 	 0.265669 	 -0.000593 
0.441860 	 0.007752 	 0.266441 	 -0.000564 
0.449612 	 0.007752 	 0.267186 	 -0.000536 
0.457364 	 0.007752 	 0.267907 	 -0.000509 
0.465116 	 0.007752 	 0.268605 	 -0.000484 
0.472868 	 0.007752 	 0.269282 	 -0.000460 
0.480620 	 0.007752 	 0.269939 	 -0.000436 
0.488372 	 0.007752 	 0.270579 	 -0.000414 
0.496124 	 0.007752 	 0.271201 	 -0.000393 
0.503876 	 0.007752 	 0.271808 	 -0.000372 
0.511628 	 0.007752 	 0.272401 	 -0.000353 
0.519380 	 0.007752 	 0.272980 	 -0.000334 
0.527132 	 0.007752 	 0.273545 	 -0.000315 
0.534884 	 0.007752 	 0.274099 	 -0.000297 
0.542636 	 0.007752 	 0.274639 	 -0.000280 
0.550388 	 0.007752 	 0.275168 	 -0.000262 
0.558140 	 0.007752 	 0.275684 	 -0.000245 
0.565891 	 0.007752 	 0.276188 	 -0.000227 
0.573643 	 0.007752 	 0.276678 	 -0.000210 
0.581395 	 0.007752 	 0.277154 	 -0.000192 
0.589147 	 0.007752 	 0.277615 	 -0.000173 
0.596899 	 0.007752 	 0.278059 	 -0.000154 
0.604651 	 0.007752 	 0.278484 	 -0.000134 
0.612403 	 0.007752 	 0.278888 	 -0.000113 
0.620155 	 0.007752 	 0.279270 	 -0.000091 
0.627907 	 0.007752 	 0.279625 	 -0.000068 
0.635659 	 0.007752 	 0.279953 	 -0.000043 
0.643411 	 0.007752 	 0.280248 	 -0.000017 
0.651163 	 0.007752 	 0.280508 	 0.000011 
0.658915 	 0.007752 	 0.280728 	 0.000042 
0.666667 	 0.007752 	 0.280905 	 0.000074 
0.674419 	 0.007752 	 0.281034 	 0.000109 
0.682171 	 0.007752 	 0.281109 	 0.000146 
0.689922 	 0.007752 	 0.281127 	 0.000186 
0.697674 	 0.007752 	 0.281080 	 0.000229 
0.705426 	 0.007752 	 0.280965 	 0.000275 
0.713178 	 0.007752 	 0.280774 	 0.000324 
0.720930 	 0.007752 	 0.280502 	 0.000377 
0.728682 	 0.007752 	 0.280141 	 0.000433 
0.736434 	 0.007752 	 0.279686 	 0.000493 
0.744186 	 0.007752 	 0.279129 	 0.000557 
0.751938 	 0.007752 	 0.278464 	 0.000626 
0.759690 	 0.007752 	 0.277682 	 0.000699 
0.767442 	 0.007752 	 0.276775 	 0.000777 
0.775194 	 0.007752 	 0.275737 	 0.000861 
0.782946 	 0.007752 	 0.274557 	 0.000950 
0.790698 	 0.007752 	 0.273228 	 0.001046 
0.798450 	 0.007752 	 0.271740 	 0.001148 
0.806202 	 0.007752 	 0.270084 	 0.001258 
0.813953 	 0.007752 	 0.268247 	 0.001377 
0.821705 	 0.007752 	 0.266219 	 0.001505 
0.829457 	 0.007752 	 0.263986 	 0.001644 
0.837209 	 0.007752 	 0.261534 	 0.001795 
0.844961 	 0.007752 	 0.258845 	 0.001961 
0.852713 	 0.007752 	 0.255898 	 0.002145 
0.860465 	 0.007752 	 0.252673 	 0.002350 
0.868217 	 0.007752 	 0.249143 	 0.002580 
0.875969 	 0.007752 	 0.245272 	 0.002841 
0.883721 	 0.007752 	 0.241020 	 0.003142 
0.891473 	 0.007752 	 0.236331 	 0.003494 
0.899225 	 0.007752 	 0.231134 	 0.003913 
0.906977 	 0.007752 	 0.225335 	 0.004424 
0.914729 	 0.007752 	 0.218809 	 0.005056 
0.922481 	 0.007752 	 0.211375 	 0.005858 
0.930233 	 0.007752 	 0.202778 	 0.006913 
0.937984 	 0.007752 	 0.192645 	 0.008357 
0.945736 	 0.007752 	 0.180407 	 0.010428 
0.953488 	 0.007752 	 0.165189 	 0.013571 
0.961240 	 0.007752 	 0.145657 	 0.018641 
0.968992 	 0.007752 	 0.119977 	 0.027238 
0.976744 	 0.007752 	 0.086454 	 0.041515 
0.984496 	 0.007752 	 0.046349 	 0.060131 
0.992248 	 0.007752 	 0.010012 	 0.060267 
0.000000 	 0.015504 	 0.000000 	 -0.015559 
0.007752 	 0.015504 	 0.000465 	 -0.034029 
0.015504 	 0.015504 	 0.001747 	 -0.041364 
0.023256 	 0.015504 	 0.005235 	 -0.041358 
0.031008 	 0.015504 	 0.011487 	 -0.037928 
0.038760 	 0.015504 	 0.020003 	 -0.033518 
0.046512 	 0.015504 	 0.029929 	 -0.029266 
0.054264 	 0.015504 	 0.040520 	 -0.025570 
0.062016 	 0.015504 	 0.051262 	 -0.022489 
0.069767 	 0.015504 	 0.061845 	 -0.019958 
0.077519 	 0.015504 	 0.072097 	 -0.017877 
0.085271 	 0.015504 	 0.081933 	 -0.016152 
0.093023 	 0.015504 	 0.091316 	 -0.014708 
0.100775 	 0.015504 	 0.100238 	 -0.013482 
0.108527 	 0.015504 	 0.108702 	 -0.012426 
0.116279 	 0.015504 	 0.116719 	 -0.011505 
0.124031 	 0.015504 	 0.124304 	 -0.010691 
0.131783 	 0.015504 	 0.131473 	 -0.009965 
0.139535 	 0.015504 	 0.138243 	 -0.009312 
0.147287 	 0.015504 	 0.144631 	 -0.008720 
0.155039 	 0.015504 	 0.150654 	 -0.008180 
0.162791 	 0.015504 	 0.156329 	 -0.007686 
0.170543 	 0.015504 	 0.161673 	 -0.007231 
0.178295 	 0.015504 	 0.166704 	 -0.006812 
0.186047 	 0.015504 	 0.171438 	 -0.006424 
0.193798 	 0.015504 	 0.175892 	 -0.006066 
0.201550 	 0.015504 	 0.180082 	 -0.005733 
0.209302 	 0.015504 	 0.184024 	 -0.005425 
0.217054 	 0.015504 	 0.187732 	 -0.005137 
0.224806 	 0.015504 	 0.191222 	 -0.004868 
0.232558 	 0.015504 	 0.194508 	 -0.004617 
0.240310 	 0.015504 	 0.197603 	 -0.004382 
0.248062 	 0.015504 	 0.200519 	 -0.004162 
0.255814 	 0.015504 	 0.203269 	 -0.003955 
0.263566 	 0.015504 	 0.205864 	 -0.003762 
0.271318 	 0.015504 	 0.208313 	 -0.003580 
0.279070 	 0.015504 	 0.210627 	 -0.003409 
0.286822 	 0.015504 	 0.212815 	 -0.003247 
0.294574 	 0.015504 	 0.214885 	 -0.003095 
0.302326 	 0.015504 	 0.216846 	 -0.002950 
0.310078 	 0.015504 	 0.218704 	 -0.002814 
0.317829 	 0.015504 	 0.220467 	 -0.002684 
0.325581 	 0.015504 	 0.222141 	 -0.002561 
0.333333 	 0.015504 	 0.223733 	 -0.002444 
0.341085 	 0.015504 	 0.225247 	 -0.002333 
0.348837 	 0.015504 	 0.226689 	 -0.002227 
0.356589 	 0.015504 	 0.228064 	 -0.002127 
0.364341 	 0.015504 	 0.229377 	 -0.002032 
0.372093 	 0.015504 	 0.230632 	 -0.001941 
0.379845 	 0.015504 	 0.231833 	 -0.001855 
0.387597 	 0.015504 	 0.232984 	 -0.001773 
0.395349 	 0.015504 	 0.234088 	 -0.001695 
0.403101 	 0.015504 	 0.235150 	 -0.001621 
0.410853 	 0.015504 	 0.236173 	 -0.001552 
0.418605 	 0.015504 	 0.237160 	 -0.001486 
0.426357 	 0.015504 	 0.238113 	 -0.001423 
0.434109 	 0.015504 	 0.239036 	 -0.001364 
0.441860 	 0.015504 	 0.239932 	 -0.001309 
0.449612 	 0.015504 	 0.240803 	 -0.001257 
0.457364 	 0.015504 	 0.241652 	 -0.001207 
0.465116 	 0.015504 	 0.242480 	 -0.001161 
0.472868 	 0.015504 	 0.243291 	 -0.001117 
0.480620 	 0.015504 	 0.244085 	 -0.001076 
0.488372 	 0.015504 	 0.244866 	 -0.001037 
0.496124 	 0.015504 	 0.245634 	 -0.001000 
0.503876 	 0.015504 	 0.246392 	 -0.000965 
0.511628 	 0.015504 	 0.247140 	 -0.000932 
0.519380 	 0.015504 	 0.247879 	 -0.000900 
0.527132 	 0.015504 	 0.248611 	 -0.000868 
0.534884 	 0.015504 	 0.249335 	 -0.000838 
0.542636 	 0.015504 	 0.250053 	 -0.000808 
0.550388 	 0.015504 	 0.250764 	 -0.000778 
0.558140 	 0.015504 	 0.251468 	 -0.000748 
0.565891 	 0.015504 	 0.252165 	 -0.000718 
0.573643 	 0.015504 	 0.252853 	 -0.000686 
0.581395 	 0.015504 	 0.253532 	 -0.000652 
0.589147 	 0.015504 	 0.254199 	 -0.000617 
0.596899 	 0.015504 	 0.254853 	 -0.000579 
0.604651 	 0.015504 	 0.255492 	 -0.000539 
0.612403 	 0.015504 	 0.256112 	 -0.000495 
0.620155 	 0.015504 	 0.256711 	 -0.000447 
0.627907 	 0.015504 	 0.257285 	 -0.000395 
0.635659 	 0.015504 	 0.257830 	 -0.000339 
0.643411 	 0.015504 	 0.258341 	 -0.000277 
0.651163 	 0.015504 	 0.258814 	 -0.000209 
0.658915 	 0.015504 	 0.259244 	 -0.000135 
0.666667 	 0.015504 	 0.259624 	 -0.000055 
0.674419 	 0.015504 	 0.259948 	 0.000033 
0.682171 	 0.015504 	 0.260211 	 0.000129 
0.689922 	 0.015504 	 0.260404 	 0.000232 
0.697674 	 0.015504 	 0.260521 	 0.000344 
0.705426 	 0.015504 	 0.260554 	 0.000466 
0.713178 	 0.015504 	 0.260495 	 0.000596 
0.720930 	 0.015504 	 0.260335 	 0.000737 
0.728682 	 0.015504 	 0.260065 	 0.000888 
0.736434 	 0.015504 	 0.259677 	 0.001050 
0.744186 	 0.015504 	 0.259161 	 0.001223 
0.751938 	 0.015504 	 0.258506 	 0.001408 
0.759690 	 0.015504 	 0.257704 	 0.001606 
0.767442 	 0.015504 	 0.256742 	 0.001816 
0.775194 	 0.015504 	 0.255612 	 0.002040 
0.782946 	 0.015504 	 0.254300 	 0.002279 
0.790698 	 0.015504 	 0.252796 	 0.002534 
0.798450 	 0.015504 	 0.251087 	 0.002805 
0.806202 	 0.015504 	 0.249159 	 0.003094 
0.813953 	 0.015504 	 0.247000 	 0.003405 
0.821705 	 0.015504 	 0.244595 	 0.003737 
0.829457 	 0.015504 	 0.241926 	 0.004096 
0.837209 	 0.015504 	 0.238976 	 0.004484 
0.844961 	 0.015504 	 0.235724 	 0.004908 
0.852713 	 0.015504 	 0.232148 	 0.005370 
0.860465 	 0.015504 	 0.228218 	 0.005880 
0.868217 	 0.015504 	 0.223902 	 0.006450 
0.875969 	 0.015504 	 0.219161 	 0.007093 
0.883721 	 0.015504 	 0.213943 	 0.007831 
0.891473 	 0.015504 	 0.208187 	 0.008691 
0.899225 	 0.015504 	 0.201808 	 0.009711 
0.906977 	 0.015504 	 0.194699 	 0.010951 
0.914729 	 0.015504 	 0.186712 	 0.012490 
0.922481 	 0.015504 	 0.177642 	 0.014455 
0.930233 	 0.015504 	 0.167199 	 0.017046 
0.937984 	 0.015504 	 0.154968 	 0.020595 
0.945736 	 0.015504 	 0.140360 	 0.025647 
0.953488 	 0.015504 	 0.122566 	 0.033102 
0.961240 	 0.015504 	 0.100636 	 0.044322 
0.968992 	 0.015504 	 0.073941 	 0.060760 
0.976744 	 0.015504 	 0.043533 	 0.081620 
0.984496 	 0.015504 	 0.014550 	 0.096468 
0.992248 	 0.015504 	 -0.002572 	 0.070279 
0.000000 	 0.023256 	 0.000000 	 -0.016024 
0.007752 	 0.023256 	 -0.001375 	 -0.035311 
0.015504 	 0.023256 	 -0.003007 	 -0.044851 
0.023256 	 0.023256 	 -0.003289 	 -0.047610 
0.031008 	 0.023256 	 -0.001375 	 -0.046443 
0.038760 	 0.023256 	 0.002790 	 -0.043444 
0.046512 	 0.023256 	 0.008809 	 -0.039857 
0.054264 	 0.023256 	 0.016154 	 -0.036312 
0.062016 	 0.023256 	 0.024342 	 -0.033072 
0.069767 	 0.023256 	 0.032998 	 -0.030209 
0.077519 	 0.023256 	 0.041850 	 -0.027712 
0.085271 	 0.023256 	 0.050709 	 -0.025536 
0.093023 	 0.023256 	 0.059450 	 -0.023630 
0.100775 	 0.023256 	 0.067985 	 -0.021946 
0.108527 	 0.023256 	 0.076260 	 -0.020443 
0.116279 	 0.023256 	 0.084236 	 -0.019090 
0.124031 	 0.023256 	 0.091893 	 -0.017860 
0.131783 	 0.023256 	 0.099217 	 -0.016735 
0.139535 	 0.023256 	 0.106202 	 -0.015700 
0.147287 	 0.023256 	 0.112848 	 -0.014743 
0.155039 	 0.023256 	 0.119159 	 -0.013855 
0.162791 	 0.023256 	 0.125141 	 -0.013030 
0.170543 	 0.023256 	 0.130803 	 -0.012262 
0.178295 	 0.023256 	 0.136156 	 -0.011546 
0.186047 	 0.023256 	 0.141210 	 -0.010878 
0.193798 	 0.023256 	 0.145980 	 -0.010256 
0.201550 	 0.023256 	 0.150479 	 -0.009675 
0.209302 	 0.023256 	 0.154719 	 -0.009133 
0.217054 	 0.023256 	 0.158714 	 -0.008627 
0.224806 	 0.023256 	 0.162478 	 -0.008154 
0.232558 	 0.023256 	 0.166024 	 -0.007712 
0.240310 	 0.023256 	 0.169366 	 -0.007298 
0.248062 	 0.023256 	 0.172516 	 -0.006912 
0.255814 	 0.023256 	 0.175485 	 -0.006550 
0.263566 	 0.023256 	 0.178285 	 -0.006211 
0.271318 	 0.023256 	 0.180928 	 -0.005894 
0.279070 	 0.023256 	 0.183422 	 -0.005597 
0.286822 	 0.023256 	 0.185778 	 -0.005318 
0.294574 	 0.023256 	 0.188004 	 -0.005055 
0.302326 	 0.023256 	 0.190111 	 -0.004809 
0.310078 	 0.023256 	 0.192105 	 -0.004577 
0.317829 	 0.023256 	 0.193995 	 -0.004358 
0.325581 	 0.023256 	 0.195787 	 -0.004152 
0.333333 	 0.023256 	 0.197488 	 -0.003958 
0.341085 	 0.023256 	 0.199105 	 -0.003775 
0.348837 	 0.023256 	 0.200644 	 -0.003603 
0.356589 	 0.023256 	 0.202110 	 -0.003440 
0.364341 	 0.023256 	 0.203509 	 -0.003287 
0.372093 	 0.023256 	 0.204846 	 -0.003142 
0.379845 	 0.023256 	 0.206125 	 -0.003006 
0.387597 	 0.023256 	 0.207351 	 -0.002878 
0.395349 	 0.023256 	 0.208529 	 -0.002757 
0.403101 	 0.023256 	 0.209663 	 -0.002644 
0.410853 	 0.023256 	 0.210756 	 -0.002538 
0.418605 	 0.023256 	 0.211813 	 -0.002439 
0.426357 	 0.023256 	 0.212836 	 -0.002347 
0.434109 	 0.023256 	 0.213831 	 -0.002260 
0.441860 	 0.023256 	 0.214798 	 -0.002180 
0.449612 	 0.023256 	 0.215743 	 -0.002105 
0.457364 	 0.023256 	 0.216667 	 -0.002036 
0.465116 	 0.023256 	 0.217574 	 -0.001971 
0.472868 	 0.023256 	 0.218466 	 -0.001912 
0.480620 	 0.023256 	 0.219345 	 -0.001856 
0.488372 	 0.023256 	 0.220215 	 -0.001805 
0.496124 	 0.023256 	 0.221075 	 -0.001757 
0.503876 	 0.023256 	 0.221930 	 -0.001713 
0.511628 	 0.023256 	 0.222779 	 -0.001671 
0.519380 	 0.023256 	 0.223625 	 -0.001631 
0.527132 	 0.023256 	 0.224468 	 -0.001593 
0.534884 	 0.023256 	 0.225309 	 -0.001556 
0.542636 	 0.023256 	 0.226149 	 -0.001519 
0.550388 	 0.023256 	 0.226988 	 -0.001483 
0.558140 	 0.023256 	 0.227825 	 -0.001445 
0.565891 	 0.023256 	 0.228660 	 -0.001406 
0.573643 	 0.023256 	 0.229492 	 -0.001364 
0.581395 	 0.023256 	 0.230319 	 -0.001320 
0.589147 	 0.023256 	 0.231140 	 -0.001271 
0.596899 	 0.023256 	 0.231953 	 -0.001218 
0.604651 	 0.023256 	 0.232755 	 -0.001159 
0.612403 	 0.023256 	 0.233542 	 -0.001094 
0.620155 	 0.023256 	 0.234312 	 -0.001021 
0.627907 	 0.023256 	 0.235059 	 -0.000940 
0.635659 	 0.023256 	 0.235780 	 -0.000850 
0.643411 	 0.023256 	 0.236469 	 -0.000750 
0.651163 	 0.023256 	 0.237120 	 -0.000639 
0.658915 	 0.023256 	 0.237727 	 -0.000515 
0.666667 	 0.023256 	 0.238284 	 -0.000379 
0.674419 	 0.023256 	 0.238783 	 -0.000229 
0.682171 	 0.023256 	 0.239217 	 -0.000065 
0.689922 	 0.023256 	 0.239577 	 0.000115 
0.697674 	 0.023256 	 0.239854 	 0.000312 
0.705426 	 0.023256 	 0.240040 	 0.000525 
0.713178 	 0.023256 	 0.240125 	 0.000756 
0.720930 	 0.023256 	 0.240098 	 0.001007 
0.728682 	 0.023256 	 0.239949 	 0.001276 
0.736434 	 0.023256 	 0.239667 	 0.001566 
0.744186 	 0.023256 	 0.239241 	 0.001877 
0.751938 	 0.023256 	 0.238659 	 0.002211 
0.759690 	 0.023256 	 0.237908 	 0.002567 
0.767442 	 0.023256 	 0.236977 	 0.002947 
0.775194 	 0.023256 	 0.235851 	 0.003352 
0.782946 	 0.023256 	 0.234517 	 0.003783 
0.790698 	 0.023256 	 0.232962 	 0.004243 
0.798450 	 0.023256 	 0.231169 	 0.004732 
0.806202 	 0.023256 	 0.229124 	 0.005253 
0.813953 	 0.023256 	 0.226809 	 0.005810 
0.821705 	 0.023256 	 0.224208 	 0.006406 
0.829457 	 0.023256 	 0.221300 	 0.007046 
0.837209 	 0.023256 	 0.218065 	 0.007736 
0.844961 	 0.023256 	 0.214479 	 0.008484 
0.852713 	 0.023256 	 0.210516 	 0.009300 
0.860465 	 0.023256 	 0.206143 	 0.010196 
0.868217 	 0.023256 	 0.201325 	 0.011191 
0.875969 	 0.023256 	 0.196016 	 0.012311 
0.883721 	 0.023256 	 0.190163 	 0.013588 
0.891473 	 0.023256 	 0.183696 	 0.015069 
0.899225 	 0.023256 	 0.176529 	 0.016821 
0.906977 	 0.023256 	 0.168547 	 0.018938 
0.914729 	 0.023256 	 0.159596 	 0.021560 
0.922481 	 0.023256 	 0.149467 	 0.024898 
0.930233 	 0.023256 	 0.137877 	 0.029277 
0.937984 	 0.023256 	 0.124439 	 0.035204 
0.945736 	 0.023256 	 0.108665 	 0.043441 
0.953488 	 0.023256 	 0.090028 	 0.055032 
0.961240 	 0.023256 	 0.068237 	 0.071017 
0.968992 	 0.023256 	 0.043911 	 0.091168 
0.976744 	 0.023256 	 0.019718 	 0.110604 
0.984496 	 0.023256 	 0.001219 	 0.113590 
0.992248 	 0.023256 	 -0.005044 	 0.067707 
0.000000 	 0.031008 	 0.000000 	 -0.014649 
0.007752 	 0.031008 	 -0.001774 	 -0.033679 
0.015504 	 0.031008 	 -0.004410 	 -0.044570 
0.023256 	 0.031008 	 -0.006305 	 -0.049524 
0.031008 	 0.031008 	 -0.006583 	 -0.050609 
0.038760 	 0.031008 	 -0.004964 	 -0.049463 
0.046512 	 0.031008 	 -0.001564 	 -0.047201 
0.054264 	 0.031008 	 0.003310 	 -0.044500 
0.062016 	 0.031008 	 0.009298 	 -0.041728 
0.069767 	 0.031008 	 0.016071 	 -0.039061 
0.077519 	 0.031008 	 0.023351 	 -0.036572 
0.085271 	 0.031008 	 0.030922 	 -0.034277 
0.093023 	 0.031008 	 0.038618 	 -0.032166 
0.100775 	 0.031008 	 0.046313 	 -0.030220 
0.108527 	 0.031008 	 0.053916 	 -0.028420 
0.116279 	 0.031008 	 0.061359 	 -0.026747 
0.124031 	 0.031008 	 0.068595 	 -0.025184 
0.131783 	 0.031008 	 0.075590 	 -0.023721 
0.139535 	 0.031008 	 0.082320 	 -0.022346 
0.147287 	 0.031008 	 0.088771 	 -0.021054 
0.155039 	 0.031008 	 0.094936 	 -0.019837 
0.162791 	 0.031008 	 0.100812 	 -0.018692 
0.170543 	 0.031008 	 0.106401 	 -0.017614 
0.178295 	 0.031008 	 0.111706 	 -0.016601 
0.186047 	 0.031008 	 0.116736 	 -0.015648 
0.193798 	 0.031008 	 0.121498 	 -0.014754 
0.201550 	 0.031008 	 0.126002 	 -0.013915 
0.209302 	 0.031008 	 0.130258 	 -0.013128 
0.217054 	 0.031008 	 0.134279 	 -0.012391 
0.224806 	 0.031008 	 0.138074 	 -0.011700 
0.232558 	 0.031008 	 0.141656 	 -0.011053 
0.240310 	 0.031008 	 0.145036 	 -0.010448 
0.248062 	 0.031008 	 0.148226 	 -0.009881 
0.255814 	 0.031008 	 0.151237 	 -0.009350 
0.263566 	 0.031008 	 0.154078 	 -0.008853 
0.271318 	 0.031008 	 0.156760 	 -0.008388 
0.279070 	 0.031008 	 0.159293 	 -0.007953 
0.286822 	 0.031008 	 0.161687 	 -0.007544 
0.294574 	 0.031008 	 0.163949 	 -0.007162 
0.302326 	 0.031008 	 0.166089 	 -0.006803 
0.310078 	 0.031008 	 0.168114 	 -0.006466 
0.317829 	 0.031008 	 0.170033 	 -0.006150 
0.325581 	 0.031008 	 0.171851 	 -0.005854 
0.333333 	 0.031008 	 0.173578 	 -0.005575 
0.341085 	 0.031008 	 0.175217 	 -0.005314 
0.348837 	 0.031008 	 0.176777 	 -0.005069 
0.356589 	 0.031008 	 0.178263 	 -0.004839 
0.364341 	 0.031008 	 0.179680 	 -0.004623 
0.372093 	 0.031008 	 0.181033 	 -0.004421 
0.379845 	 0.031008 	 0.182329 	 -0.004232 
0.387597 	 0.031008 	 0.183572 	 -0.004056 
0.395349 	 0.031008 	 0.184766 	 -0.003891 
0.403101 	 0.031008 	 0.185916 	 -0.003737 
0.410853 	 0.031008 	 0.187026 	 -0.003595 
0.418605 	 0.031008 	 0.188101 	 -0.003463 
0.426357 	 0.031008 	 0.189144 	 -0.003341 
0.434109 	 0.031008 	 0.190159 	 -0.003228 
0.441860 	 0.031008 	 0.191150 	 -0.003124 
0.449612 	 0.031008 	 0.192121 	 -0.003029 
0.457364 	 0.031008 	 0.193074 	 -0.002942 
0.465116 	 0.031008 	 0.194012 	 -0.002863 
0.472868 	 0.031008 	 0.194939 	 -0.002791 
0.480620 	 0.031008 	 0.195857 	 -0.002726 
0.488372 	 0.031008 	 0.196769 	 -0.002666 
0.496124 	 0.031008 	 0.197677 	 -0.002612 
0.503876 	 0.031008 	 0.198583 	 -0.002562 
0.511628 	 0.031008 	 0.199489 	 -0.002517 
0.519380 	 0.031008 	 0.200396 	 -0.002474 
0.527132 	 0.031008 	 0.201306 	 -0.002434 
0.534884 	 0.031008 	 0.202219 	 -0.002396 
0.542636 	 0.031008 	 0.203137 	 -0.002358 
0.550388 	 0.031008 	 0.204058 	 -0.002320 
0.558140 	 0.031008 	 0.204984 	 -0.002280 
0.565891 	 0.031008 	 0.205913 	 -0.002238 
0.573643 	 0.031008 	 0.206845 	 -0.002192 
0.581395 	 0.031008 	 0.207778 	 -0.002141 
0.589147 	 0.031008 	 0.208711 	 -0.002084 
0.596899 	 0.031008 	 0.209640 	 -0.002020 
0.604651 	 0.031008 	 0.210563 	 -0.001946 
0.612403 	 0.031008 	 0.211477 	 -0.001863 
0.620155 	 0.031008 	 0.212377 	 -0.001769 
0.627907 	 0.031008 	 0.213259 	 -0.001661 
0.635659 	 0.031008 	 0.214119 	 -0.001539 
0.643411 	 0.031008 	 0.214949 	 -0.001401 
0.651163 	 0.031008 	 0.215745 	 -0.001246 
0.658915 	 0.031008 	 0.216499 	 -0.001072 
0.666667 	 0.031008 	 0.217205 	 -0.000878 
0.674419 	 0.031008 	 0.217853 	 -0.000663 
0.682171 	 0.031008 	 0.218435 	 -0.000425 
0.689922 	 0.031008 	 0.218943 	 -0.000162 
0.697674 	 0.031008 	 0.219366 	 0.000126 
0.705426 	 0.031008 	 0.219694 	 0.000441 
0.713178 	 0.031008 	 0.219917 	 0.000783 
0.720930 	 0.031008 	 0.220024 	 0.001155 
0.728682 	 0.031008 	 0.220002 	 0.001558 
0.736434 	 0.031008 	 0.219839 	 0.001992 
0.744186 	 0.031008 	 0.219523 	 0.002460 
0.751938 	 0.031008 	 0.219040 	 0.002961 
0.759690 	 0.031008 	 0.218376 	 0.003499 
0.767442 	 0.031008 	 0.217517 	 0.004073 
0.775194 	 0.031008 	 0.216449 	 0.004686 
0.782946 	 0.031008 	 0.215155 	 0.005339 
0.790698 	 0.031008 	 0.213620 	 0.006035 
0.798450 	 0.031008 	 0.211827 	 0.006777 
0.806202 	 0.031008 	 0.209757 	 0.007568 
0.813953 	 0.031008 	 0.207393 	 0.008412 
0.821705 	 0.031008 	 0.204713 	 0.009314 
0.829457 	 0.031008 	 0.201697 	 0.010281 
0.837209 	 0.031008 	 0.198321 	 0.011322 
0.844961 	 0.031008 	 0.194559 	 0.012448 
0.852713 	 0.031008 	 0.190381 	 0.013672 
0.860465 	 0.031008 	 0.185755 	 0.015014 
0.868217 	 0.031008 	 0.180640 	 0.016500 
0.875969 	 0.031008 	 0.174990 	 0.018164 
0.883721 	 0.031008 	 0.168749 	 0.020054 
0.891473 	 0.031008 	 0.161847 	 0.022236 
0.899225 	 0.031008 	 0.154198 	 0.024803 
0.906977 	 0.031008 	 0.145687 	 0.027889 
0.914729 	 0.031008 	 0.136167 	 0.031688 
0.922481 	 0.031008 	 0.125445 	 0.036488 
0.930233 	 0.031008 	 0.113270 	 0.042715 
0.937984 	 0.031008 	 0.099340 	 0.050978 
0.945736 	 0.031008 	 0.083343 	 0.062077 
0.953488 	 0.031008 	 0.065117 	 0.076823 
0.961240 	 0.031008 	 0.045002 	 0.095343 
0.968992 	 0.031008 	 0.024440 	 0.115362 
0.976744 	 0.031008 	 0.006553 	 0.129103 
0.984496 	 0.031008 	 -0.004213 	 0.119853 
0.992248 	 0.031008 	 -0.004911 	 0.062662 
0.000000 	 0.038760 	 0.000000 	 -0.012875 
0.007752 	 0.038760 	 -0.001612 	 -0.031044 
0.015504 	 0.038760 	 -0.004303 	 -0.042675 
0.023256 	 0.038760 	 -0.006665 	 -0.049245 
0.031008 	 0.038760 	 -0.007880 	 -0.052228 
0.038760 	 0.038760 	 -0.007589 	 -0.052863 
0.046512 	 0.038760 	 -0.005760 	 -0.052075 
0.054264 	 0.038760 	 -0.002548 	 -0.050489 
0.062016 	 0.038760 	 0.001807 	 -0.048500 
0.069767 	 0.038760 	 0.007046 	 -0.046342 
0.077519 	 0.038760 	 0.012928 	 -0.044143 
0.085271 	 0.038760 	 0.019248 	 -0.041972 
0.093023 	 0.038760 	 0.025835 	 -0.039861 
0.100775 	 0.038760 	 0.032554 	 -0.037823 
0.108527 	 0.038760 	 0.039296 	 -0.035864 
0.116279 	 0.038760 	 0.045982 	 -0.033982 
0.124031 	 0.038760 	 0.052548 	 -0.032178 
0.131783 	 0.038760 	 0.058949 	 -0.030450 
0.139535 	 0.038760 	 0.065152 	 -0.028797 
0.147287 	 0.038760 	 0.071133 	 -0.027219 
0.155039 	 0.038760 	 0.076879 	 -0.025713 
0.162791 	 0.038760 	 0.082379 	 -0.024281 
0.170543 	 0.038760 	 0.087631 	 -0.022920 
0.178295 	 0.038760 	 0.092635 	 -0.021630 
0.186047 	 0.038760 	 0.097393 	 -0.020410 