VARIABLES ="X", "Y", "Omega"
ZONE T = "BLOCK1", I = 129, J = 129, F = POINT

0.000000 	 0.000000 	 -1.677653 
0.007752 	 0.000000 	 -2.721647 
0.015504 	 0.000000 	 -4.573224 
0.023256 	 0.000000 	 -6.976638 
0.031008 	 0.000000 	 -9.482868 
0.038760 	 0.000000 	 -11.819071 
0.046512 	 0.000000 	 -13.893306 
0.054264 	 0.000000 	 -15.706368 
0.062016 	 0.000000 	 -17.291125 
0.069767 	 0.000000 	 -18.685949 
0.077519 	 0.000000 	 -19.925098 
0.085271 	 0.000000 	 -21.036559 
0.093023 	 0.000000 	 -22.042268 
0.100775 	 0.000000 	 -22.959206 
0.108527 	 0.000000 	 -23.800659 
0.116279 	 0.000000 	 -24.576999 
0.124031 	 0.000000 	 -25.296403 
0.131783 	 0.000000 	 -25.965433 
0.139535 	 0.000000 	 -26.589440 
0.147287 	 0.000000 	 -27.172866 
0.155039 	 0.000000 	 -27.719463 
0.162791 	 0.000000 	 -28.232445 
0.170543 	 0.000000 	 -28.714625 
0.178295 	 0.000000 	 -29.168477 
0.186047 	 0.000000 	 -29.596186 
0.193798 	 0.000000 	 -29.999730 
0.201550 	 0.000000 	 -30.380909 
0.209302 	 0.000000 	 -30.741301 
0.217054 	 0.000000 	 -31.082350 
0.224806 	 0.000000 	 -31.405419 
0.232558 	 0.000000 	 -31.711690 
0.240310 	 0.000000 	 -32.002241 
0.248062 	 0.000000 	 -32.278083 
0.255814 	 0.000000 	 -32.540149 
0.263566 	 0.000000 	 -32.789297 
0.271318 	 0.000000 	 -33.026315 
0.279070 	 0.000000 	 -33.251922 
0.286822 	 0.000000 	 -33.466780 
0.294574 	 0.000000 	 -33.671491 
0.302326 	 0.000000 	 -33.866608 
0.310078 	 0.000000 	 -34.052644 
0.317829 	 0.000000 	 -34.230079 
0.325581 	 0.000000 	 -34.399355 
0.333333 	 0.000000 	 -34.560886 
0.341085 	 0.000000 	 -34.715062 
0.348837 	 0.000000 	 -34.862248 
0.356589 	 0.000000 	 -35.002790 
0.364341 	 0.000000 	 -35.137029 
0.372093 	 0.000000 	 -35.265272 
0.379845 	 0.000000 	 -35.387797 
0.387597 	 0.000000 	 -35.504892 
0.395349 	 0.000000 	 -35.616837 
0.403101 	 0.000000 	 -35.723897 
0.410853 	 0.000000 	 -35.826327 
0.418605 	 0.000000 	 -35.924376 
0.426357 	 0.000000 	 -36.018282 
0.434109 	 0.000000 	 -36.108274 
0.441860 	 0.000000 	 -36.194573 
0.449612 	 0.000000 	 -36.277388 
0.457364 	 0.000000 	 -36.356921 
0.465116 	 0.000000 	 -36.433363 
0.472868 	 0.000000 	 -36.506892 
0.480620 	 0.000000 	 -36.577676 
0.488372 	 0.000000 	 -36.645870 
0.496124 	 0.000000 	 -36.711614 
0.503876 	 0.000000 	 -36.775036 
0.511628 	 0.000000 	 -36.836245 
0.519380 	 0.000000 	 -36.895337 
0.527132 	 0.000000 	 -36.952387 
0.534884 	 0.000000 	 -37.007451 
0.542636 	 0.000000 	 -37.060568 
0.550388 	 0.000000 	 -37.111750 
0.558140 	 0.000000 	 -37.160990 
0.565891 	 0.000000 	 -37.208257 
0.573643 	 0.000000 	 -37.253493 
0.581395 	 0.000000 	 -37.296613 
0.589147 	 0.000000 	 -37.337508 
0.596899 	 0.000000 	 -37.376038 
0.604651 	 0.000000 	 -37.412035 
0.612403 	 0.000000 	 -37.445300 
0.620155 	 0.000000 	 -37.475604 
0.627907 	 0.000000 	 -37.502687 
0.635659 	 0.000000 	 -37.526258 
0.643411 	 0.000000 	 -37.545994 
0.651163 	 0.000000 	 -37.561540 
0.658915 	 0.000000 	 -37.572511 
0.666667 	 0.000000 	 -37.578487 
0.674419 	 0.000000 	 -37.579020 
0.682171 	 0.000000 	 -37.573631 
0.689922 	 0.000000 	 -37.561809 
0.697674 	 0.000000 	 -37.543015 
0.705426 	 0.000000 	 -37.516682 
0.713178 	 0.000000 	 -37.482211 
0.720930 	 0.000000 	 -37.438975 
0.728682 	 0.000000 	 -37.386320 
0.736434 	 0.000000 	 -37.323560 
0.744186 	 0.000000 	 -37.249979 
0.751938 	 0.000000 	 -37.164831 
0.759690 	 0.000000 	 -37.067330 
0.767442 	 0.000000 	 -36.956651 
0.775194 	 0.000000 	 -36.831925 
0.782946 	 0.000000 	 -36.692234 
0.790698 	 0.000000 	 -36.536598 
0.798450 	 0.000000 	 -36.363964 
0.806202 	 0.000000 	 -36.173185 
0.813953 	 0.000000 	 -35.963000 
0.821705 	 0.000000 	 -35.732007 
0.829457 	 0.000000 	 -35.478634 
0.837209 	 0.000000 	 -35.201064 
0.844961 	 0.000000 	 -34.897107 
0.852713 	 0.000000 	 -34.564384 
0.860465 	 0.000000 	 -34.200092 
0.868217 	 0.000000 	 -33.800630 
0.875969 	 0.000000 	 -33.361566 
0.883721 	 0.000000 	 -32.877330 
0.891473 	 0.000000 	 -32.340702 
0.899225 	 0.000000 	 -31.742103 
0.906977 	 0.000000 	 -31.068857 
0.914729 	 0.000000 	 -30.303522 
0.922481 	 0.000000 	 -29.420944 
0.930233 	 0.000000 	 -28.384320 
0.937984 	 0.000000 	 -27.137597 
0.945736 	 0.000000 	 -25.591524 
0.953488 	 0.000000 	 -23.600170 
0.961240 	 0.000000 	 -20.927353 
0.968992 	 0.000000 	 -17.241508 
0.976744 	 0.000000 	 -12.326626 
0.984496 	 0.000000 	 -7.039359 
0.992248 	 0.000000 	 -6.149339 
0.000000 	 0.007752 	 -2.450694 
0.007752 	 0.007752 	 -0.008901 
0.015504 	 0.007752 	 2.809444 
0.023256 	 0.007752 	 4.944120 
0.031008 	 0.007752 	 6.274263 
0.038760 	 0.007752 	 7.013314 
0.046512 	 0.007752 	 7.376315 
0.054264 	 0.007752 	 7.510243 
0.062016 	 0.007752 	 7.506244 
0.069767 	 0.007752 	 7.419026 
0.077519 	 0.007752 	 7.281622 
0.085271 	 0.007752 	 7.114297 
0.093023 	 0.007752 	 6.930140 
0.100775 	 0.007752 	 6.737926 
0.108527 	 0.007752 	 6.543358 
0.116279 	 0.007752 	 6.350291 
0.124031 	 0.007752 	 6.161416 
0.131783 	 0.007752 	 5.978619 
0.139535 	 0.007752 	 5.803214 
0.147287 	 0.007752 	 5.636097 
0.155039 	 0.007752 	 5.477825 
0.162791 	 0.007752 	 5.328680 
0.170543 	 0.007752 	 5.188695 
0.178295 	 0.007752 	 5.057775 
0.186047 	 0.007752 	 4.935777 
0.193798 	 0.007752 	 4.822454 
0.201550 	 0.007752 	 4.717462 
0.209302 	 0.007752 	 4.620491 
0.217054 	 0.007752 	 4.531093 
0.224806 	 0.007752 	 4.448625 
0.232558 	 0.007752 	 4.372574 
0.240310 	 0.007752 	 4.302517 
0.248062 	 0.007752 	 4.238031 
0.255814 	 0.007752 	 4.178716 
0.263566 	 0.007752 	 4.124169 
0.271318 	 0.007752 	 4.073989 
0.279070 	 0.007752 	 4.027781 
0.286822 	 0.007752 	 3.985159 
0.294574 	 0.007752 	 3.945772 
0.302326 	 0.007752 	 3.909299 
0.310078 	 0.007752 	 3.875440 
0.317829 	 0.007752 	 3.843909 
0.325581 	 0.007752 	 3.814441 
0.333333 	 0.007752 	 3.786788 
0.341085 	 0.007752 	 3.760723 
0.348837 	 0.007752 	 3.736036 
0.356589 	 0.007752 	 3.712530 
0.364341 	 0.007752 	 3.690029 
0.372093 	 0.007752 	 3.668366 
0.379845 	 0.007752 	 3.647379 
0.387597 	 0.007752 	 3.626923 
0.395349 	 0.007752 	 3.606864 
0.403101 	 0.007752 	 3.587080 
0.410853 	 0.007752 	 3.567456 
0.418605 	 0.007752 	 3.547886 
0.426357 	 0.007752 	 3.528270 
0.434109 	 0.007752 	 3.508518 
0.441860 	 0.007752 	 3.488543 
0.449612 	 0.007752 	 3.468266 
0.457364 	 0.007752 	 3.447617 
0.465116 	 0.007752 	 3.426528 
0.472868 	 0.007752 	 3.404942 
0.480620 	 0.007752 	 3.382807 
0.488372 	 0.007752 	 3.360076 
0.496124 	 0.007752 	 3.336711 
0.503876 	 0.007752 	 3.312681 
0.511628 	 0.007752 	 3.287966 
0.519380 	 0.007752 	 3.262549 
0.527132 	 0.007752 	 3.236428 
0.534884 	 0.007752 	 3.209605 
0.542636 	 0.007752 	 3.182095 
0.550388 	 0.007752 	 3.153925 
0.558140 	 0.007752 	 3.125130 
0.565891 	 0.007752 	 3.095760 
0.573643 	 0.007752 	 3.065877 
0.581395 	 0.007752 	 3.035555 
0.589147 	 0.007752 	 3.004885 
0.596899 	 0.007752 	 2.973968 
0.604651 	 0.007752 	 2.942925 
0.612403 	 0.007752 	 2.911890 
0.620155 	 0.007752 	 2.881012 
0.627907 	 0.007752 	 2.850458 
0.635659 	 0.007752 	 2.820404 
0.643411 	 0.007752 	 2.791058 
0.651163 	 0.007752 	 2.762641 
0.658915 	 0.007752 	 2.735382 
0.666667 	 0.007752 	 2.709529 
0.674419 	 0.007752 	 2.685342 
0.682171 	 0.007752 	 2.663101 
0.689922 	 0.007752 	 2.643098 
0.697674 	 0.007752 	 2.625639 
0.705426 	 0.007752 	 2.611043 
0.713178 	 0.007752 	 2.599641 
0.720930 	 0.007752 	 2.591775 
0.728682 	 0.007752 	 2.587795 
0.736434 	 0.007752 	 2.588061 
0.744186 	 0.007752 	 2.592941 
0.751938 	 0.007752 	 2.602831 
0.759690 	 0.007752 	 2.618116 
0.767442 	 0.007752 	 2.639166 
0.775194 	 0.007752 	 2.666373 
0.782946 	 0.007752 	 2.700138 
0.790698 	 0.007752 	 2.740869 
0.798450 	 0.007752 	 2.788990 
0.806202 	 0.007752 	 2.844951 
0.813953 	 0.007752 	 2.909175 
0.821705 	 0.007752 	 2.982126 
0.829457 	 0.007752 	 3.064351 
0.837209 	 0.007752 	 3.156412 
0.844961 	 0.007752 	 3.258919 
0.852713 	 0.007752 	 3.372638 
0.860465 	 0.007752 	 3.498526 
0.868217 	 0.007752 	 3.637754 
0.875969 	 0.007752 	 3.791831 
0.883721 	 0.007752 	 3.962677 
0.891473 	 0.007752 	 4.152955 
0.899225 	 0.007752 	 4.366460 
0.906977 	 0.007752 	 4.608091 
0.914729 	 0.007752 	 4.885202 
0.922481 	 0.007752 	 5.210060 
0.930233 	 0.007752 	 5.601223 
0.937984 	 0.007752 	 6.086441 
0.945736 	 0.007752 	 6.706368 
0.953488 	 0.007752 	 7.509100 
0.961240 	 0.007752 	 8.504012 
0.968992 	 0.007752 	 9.473880 
0.976744 	 0.007752 	 9.443778 
0.984496 	 0.007752 	 5.679157 
0.992248 	 0.007752 	 -7.233860 
0.000000 	 0.015504 	 -3.048047 
0.007752 	 0.015504 	 -1.034758 
0.015504 	 0.015504 	 0.790756 
0.023256 	 0.015504 	 2.261107 
0.031008 	 0.015504 	 3.336057 
0.038760 	 0.015504 	 4.076929 
0.046512 	 0.015504 	 4.568223 
0.054264 	 0.015504 	 4.882463 
0.062016 	 0.015504 	 5.073396 
0.069767 	 0.015504 	 5.178605 
0.077519 	 0.015504 	 5.223914 
0.085271 	 0.015504 	 5.227088 
0.093023 	 0.015504 	 5.200571 
0.100775 	 0.015504 	 5.153256 
0.108527 	 0.015504 	 5.091528 
0.116279 	 0.015504 	 5.020041 
0.124031 	 0.015504 	 4.942246 
0.131783 	 0.015504 	 4.860744 
0.139535 	 0.015504 	 4.777510 
0.147287 	 0.015504 	 4.694059 
0.155039 	 0.015504 	 4.611547 
0.162791 	 0.015504 	 4.530846 
0.170543 	 0.015504 	 4.452591 
0.178295 	 0.015504 	 4.377247 
0.186047 	 0.015504 	 4.305152 
0.193798 	 0.015504 	 4.236541 
0.201550 	 0.015504 	 4.171552 
0.209302 	 0.015504 	 4.110268 
0.217054 	 0.015504 	 4.052691 
0.224806 	 0.015504 	 3.998718 
0.232558 	 0.015504 	 3.948219 
0.240310 	 0.015504 	 3.901061 
0.248062 	 0.015504 	 3.857106 
0.255814 	 0.015504 	 3.816204 
0.263566 	 0.015504 	 3.778201 
0.271318 	 0.015504 	 3.742927 
0.279070 	 0.015504 	 3.710207 
0.286822 	 0.015504 	 3.679858 
0.294574 	 0.015504 	 3.651696 
0.302326 	 0.015504 	 3.625548 
0.310078 	 0.015504 	 3.601240 
0.317829 	 0.015504 	 3.578608 
0.325581 	 0.015504 	 3.557489 
0.333333 	 0.015504 	 3.537730 
0.341085 	 0.015504 	 3.519182 
0.348837 	 0.015504 	 3.501703 
0.356589 	 0.015504 	 3.485162 
0.364341 	 0.015504 	 3.469460 
0.372093 	 0.015504 	 3.454469 
0.379845 	 0.015504 	 3.440031 
0.387597 	 0.015504 	 3.426037 
0.395349 	 0.015504 	 3.412394 
0.403101 	 0.015504 	 3.399009 
0.410853 	 0.015504 	 3.385795 
0.418605 	 0.015504 	 3.372665 
0.426357 	 0.015504 	 3.359540 
0.434109 	 0.015504 	 3.346343 
0.441860 	 0.015504 	 3.333002 
0.449612 	 0.015504 	 3.319448 
0.457364 	 0.015504 	 3.305620 
0.465116 	 0.015504 	 3.291457 
0.472868 	 0.015504 	 3.276905 
0.480620 	 0.015504 	 3.261915 
0.488372 	 0.015504 	 3.246441 
0.496124 	 0.015504 	 3.230444 
0.503876 	 0.015504 	 3.213887 
0.511628 	 0.015504 	 3.196744 
0.519380 	 0.015504 	 3.178990 
0.527132 	 0.015504 	 3.160609 
0.534884 	 0.015504 	 3.141590 
0.542636 	 0.015504 	 3.121931 
0.550388 	 0.015504 	 3.101635 
0.558140 	 0.015504 	 3.080714 
0.565891 	 0.015504 	 3.059189 
0.573643 	 0.015504 	 3.037089 
0.581395 	 0.015504 	 3.014454 
0.589147 	 0.015504 	 2.991330 
0.596899 	 0.015504 	 2.967778 
0.604651 	 0.015504 	 2.943866 
0.612403 	 0.015504 	 2.919676 
0.620155 	 0.015504 	 2.895297 
0.627907 	 0.015504 	 2.870835 
0.635659 	 0.015504 	 2.846405 
0.643411 	 0.015504 	 2.822134 
0.651163 	 0.015504 	 2.798163 
0.658915 	 0.015504 	 2.774645 
0.666667 	 0.015504 	 2.751745 
0.674419 	 0.015504 	 2.729642 
0.682171 	 0.015504 	 2.708528 
0.689922 	 0.015504 	 2.688607 
0.697674 	 0.015504 	 2.670097 
0.705426 	 0.015504 	 2.653229 
0.713178 	 0.015504 	 2.638244 
0.720930 	 0.015504 	 2.625400 
0.728682 	 0.015504 	 2.614964 
0.736434 	 0.015504 	 2.607217 
0.744186 	 0.015504 	 2.602453 
0.751938 	 0.015504 	 2.600976 
0.759690 	 0.015504 	 2.603106 
0.767442 	 0.015504 	 2.609176 
0.775194 	 0.015504 	 2.619534 
0.782946 	 0.015504 	 2.634542 
0.790698 	 0.015504 	 2.654584 
0.798450 	 0.015504 	 2.680067 
0.806202 	 0.015504 	 2.711441 
0.813953 	 0.015504 	 2.749131 
0.821705 	 0.015504 	 2.793618 
0.829457 	 0.015504 	 2.845475 
0.837209 	 0.015504 	 2.905243 
0.844961 	 0.015504 	 2.973349 
0.852713 	 0.015504 	 3.050703 
0.860465 	 0.015504 	 3.138529 
0.868217 	 0.015504 	 3.237964 
0.875969 	 0.015504 	 3.350497 
0.883721 	 0.015504 	 3.478078 
0.891473 	 0.015504 	 3.623363 
0.899225 	 0.015504 	 3.790092 
0.906977 	 0.015504 	 3.983507 
0.914729 	 0.015504 	 4.211334 
0.922481 	 0.015504 	 4.485415 
0.930233 	 0.015504 	 4.823123 
0.937984 	 0.015504 	 5.247449 
0.945736 	 0.015504 	 5.780394 
0.953488 	 0.015504 	 6.412300 
0.961240 	 0.015504 	 7.007281 
0.968992 	 0.015504 	 7.084922 
0.976744 	 0.015504 	 5.482380 
0.984496 	 0.015504 	 0.191849 
0.992248 	 0.015504 	 -10.738838 
0.000000 	 0.023256 	 -3.141949 
0.007752 	 0.023256 	 -1.623815 
0.015504 	 0.023256 	 -0.336890 
0.023256 	 0.023256 	 0.708806 
0.031008 	 0.023256 	 1.524256 
0.038760 	 0.023256 	 2.143110 
0.046512 	 0.023256 	 2.605708 
0.054264 	 0.023256 	 2.948746 
0.062016 	 0.023256 	 3.201799 
0.069767 	 0.023256 	 3.387362 
0.077519 	 0.023256 	 3.522124 
0.085271 	 0.023256 	 3.618381 
0.093023 	 0.023256 	 3.685238 
0.100775 	 0.023256 	 3.729509 
0.108527 	 0.023256 	 3.756330 
0.116279 	 0.023256 	 3.769613 
0.124031 	 0.023256 	 3.772377 
0.131783 	 0.023256 	 3.766980 
0.139535 	 0.023256 	 3.755291 
0.147287 	 0.023256 	 3.738805 
0.155039 	 0.023256 	 3.718727 
0.162791 	 0.023256 	 3.696038 
0.170543 	 0.023256 	 3.671532 
0.178295 	 0.023256 	 3.645854 
0.186047 	 0.023256 	 3.619539 
0.193798 	 0.023256 	 3.593025 
0.201550 	 0.023256 	 3.566668 
0.209302 	 0.023256 	 3.540762 
0.217054 	 0.023256 	 3.515537 
0.224806 	 0.023256 	 3.491155 
0.232558 	 0.023256 	 3.467729 
0.240310 	 0.023256 	 3.445340 
0.248062 	 0.023256 	 3.424044 
0.255814 	 0.023256 	 3.403877 
0.263566 	 0.023256 	 3.384854 
0.271318 	 0.023256 	 3.366973 
0.279070 	 0.023256 	 3.350217 
0.286822 	 0.023256 	 3.334552 
0.294574 	 0.023256 	 3.319933 
0.302326 	 0.023256 	 3.306309 
0.310078 	 0.023256 	 3.293620 
0.317829 	 0.023256 	 3.281805 
0.325581 	 0.023256 	 3.270794 
0.333333 	 0.023256 	 3.260518 
0.341085 	 0.023256 	 3.250907 
0.348837 	 0.023256 	 3.241887 
0.356589 	 0.023256 	 3.233388 
0.364341 	 0.023256 	 3.225346 
0.372093 	 0.023256 	 3.217691 
0.379845 	 0.023256 	 3.210343 
0.387597 	 0.023256 	 3.203229 
0.395349 	 0.023256 	 3.196280 
0.403101 	 0.023256 	 3.189433 
0.410853 	 0.023256 	 3.182624 
0.418605 	 0.023256 	 3.175795 
0.426357 	 0.023256 	 3.168888 
0.434109 	 0.023256 	 3.161846 
0.441860 	 0.023256 	 3.154616 
0.449612 	 0.023256 	 3.147146 
0.457364 	 0.023256 	 3.139388 
0.465116 	 0.023256 	 3.131296 
0.472868 	 0.023256 	 3.122826 
0.480620 	 0.023256 	 3.113939 
0.488372 	 0.023256 	 3.104598 
0.496124 	 0.023256 	 3.094768 
0.503876 	 0.023256 	 3.084420 
0.511628 	 0.023256 	 3.073528 
0.519380 	 0.023256 	 3.062070 
0.527132 	 0.023256 	 3.050029 
0.534884 	 0.023256 	 3.037393 
0.542636 	 0.023256 	 3.024153 
0.550388 	 0.023256 	 3.010308 
0.558140 	 0.023256 	 2.995860 
0.565891 	 0.023256 	 2.980820 
0.573643 	 0.023256 	 2.965201 
0.581395 	 0.023256 	 2.949026 
0.589147 	 0.023256 	 2.932324 
0.596899 	 0.023256 	 2.915131 
0.604651 	 0.023256 	 2.897489 
0.612403 	 0.023256 	 2.879449 
0.620155 	 0.023256 	 2.861071 
0.627907 	 0.023256 	 2.842421 
0.635659 	 0.023256 	 2.823583 
0.643411 	 0.023256 	 2.804631 
0.651163 	 0.023256 	 2.785651 
0.658915 	 0.023256 	 2.766748 
0.666667 	 0.023256 	 2.748034 
0.674419 	 0.023256 	 2.729631 
0.682171 	 0.023256 	 2.711670 
0.689922 	 0.023256 	 2.694293 
0.697674 	 0.023256 	 2.677651 
0.705426 	 0.023256 	 2.661908 
0.713178 	 0.023256 	 2.647236 
0.720930 	 0.023256 	 2.633821 
0.728682 	 0.023256 	 2.621861 
0.736434 	 0.023256 	 2.611568 
0.744186 	 0.023256 	 2.603164 
0.751938 	 0.023256 	 2.596864 
0.759690 	 0.023256 	 2.592914 
0.767442 	 0.023256 	 2.591604 
0.775194 	 0.023256 	 2.593224 
0.782946 	 0.023256 	 2.598082 
0.790698 	 0.023256 	 2.606510 
0.798450 	 0.023256 	 2.618870 
0.806202 	 0.023256 	 2.635561 
0.813953 	 0.023256 	 2.657011 
0.821705 	 0.023256 	 2.683693 
0.829457 	 0.023256 	 2.716147 
0.837209 	 0.023256 	 2.754966 
0.844961 	 0.023256 	 2.800772 
0.852713 	 0.023256 	 2.854386 
0.860465 	 0.023256 	 2.916880 
0.868217 	 0.023256 	 2.989530 
0.875969 	 0.023256 	 3.073948 
0.883721 	 0.023256 	 3.172246 
0.891473 	 0.023256 	 3.287308 
0.899225 	 0.023256 	 3.423178 
0.906977 	 0.023256 	 3.585628 
0.914729 	 0.023256 	 3.782982 
0.922481 	 0.023256 	 4.027043 
0.930233 	 0.023256 	 4.332869 
0.937984 	 0.023256 	 4.714019 
0.945736 	 0.023256 	 5.164462 
0.953488 	 0.023256 	 5.609048 
0.961240 	 0.023256 	 5.798881 
0.968992 	 0.023256 	 5.154468 
0.976744 	 0.023256 	 2.665672 
0.984496 	 0.023256 	 -2.845599 
0.992248 	 0.023256 	 -11.657515 
0.000000 	 0.031008 	 -2.967337 
0.007752 	 0.031008 	 -1.876577 
0.015504 	 0.031008 	 -0.947317 
0.023256 	 0.031008 	 -0.184207 
0.031008 	 0.031008 	 0.429785 
0.038760 	 0.031008 	 0.919449 
0.046512 	 0.031008 	 1.309607 
0.054264 	 0.031008 	 1.621681 
0.062016 	 0.031008 	 1.872857 
0.069767 	 0.031008 	 2.076435 
0.077519 	 0.031008 	 2.242551 
0.085271 	 0.031008 	 2.378901 
0.093023 	 0.031008 	 2.491360 
0.100775 	 0.031008 	 2.584448 
0.108527 	 0.031008 	 2.661677 
0.116279 	 0.031008 	 2.725802 
0.124031 	 0.031008 	 2.779013 
0.131783 	 0.031008 	 2.823072 
0.139535 	 0.031008 	 2.859416 
0.147287 	 0.031008 	 2.889235 
0.155039 	 0.031008 	 2.913524 
0.162791 	 0.031008 	 2.933124 
0.170543 	 0.031008 	 2.948751 
0.178295 	 0.031008 	 2.961022 
0.186047 	 0.031008 	 2.970468 
0.193798 	 0.031008 	 2.977555 
0.201550 	 0.031008 	 2.982688 
0.209302 	 0.031008 	 2.986222 
0.217054 	 0.031008 	 2.988466 
0.224806 	 0.031008 	 2.989683 
0.232558 	 0.031008 	 2.990092 
0.240310 	 0.031008 	 2.989884 
0.248062 	 0.031008 	 2.989218 
0.255814 	 0.031008 	 2.988231 
0.263566 	 0.031008 	 2.987037 
0.271318 	 0.031008 	 2.985732 
0.279070 	 0.031008 	 2.984392 
0.286822 	 0.031008 	 2.983076 
0.294574 	 0.031008 	 2.981829 
0.302326 	 0.031008 	 2.980681 
0.310078 	 0.031008 	 2.979654 
0.317829 	 0.031008 	 2.978755 
0.325581 	 0.031008 	 2.977988 
0.333333 	 0.031008 	 2.977345 
0.341085 	 0.031008 	 2.976813 
0.348837 	 0.031008 	 2.976375 
0.356589 	 0.031008 	 2.976008 
0.364341 	 0.031008 	 2.975690 
0.372093 	 0.031008 	 2.975392 
0.379845 	 0.031008 	 2.975080 
0.387597 	 0.031008 	 2.974719 
0.395349 	 0.031008 	 2.974272 
0.403101 	 0.031008 	 2.973702 
0.410853 	 0.031008 	 2.972973 
0.418605 	 0.031008 	 2.972049 
0.426357 	 0.031008 	 2.970894 
0.434109 	 0.031008 	 2.969471 
0.441860 	 0.031008 	 2.967746 
0.449612 	 0.031008 	 2.965685 
0.457364 	 0.031008 	 2.963256 
0.465116 	 0.031008 	 2.960425 
0.472868 	 0.031008 	 2.957165 
0.480620 	 0.031008 	 2.953446 
0.488372 	 0.031008 	 2.949244 
0.496124 	 0.031008 	 2.944535 
0.503876 	 0.031008 	 2.939298 
0.511628 	 0.031008 	 2.933516 
0.519380 	 0.031008 	 2.927174 
0.527132 	 0.031008 	 2.920260 
0.534884 	 0.031008 	 2.912766 
0.542636 	 0.031008 	 2.904689 
0.550388 	 0.031008 	 2.896027 
0.558140 	 0.031008 	 2.886785 
0.565891 	 0.031008 	 2.876970 
0.573643 	 0.031008 	 2.866596 
0.581395 	 0.031008 	 2.855679 
0.589147 	 0.031008 	 2.844241 
0.596899 	 0.031008 	 2.832309 
0.604651 	 0.031008 	 2.819916 
0.612403 	 0.031008 	 2.807097 
0.620155 	 0.031008 	 2.793896 
0.627907 	 0.031008 	 2.780360 
0.635659 	 0.031008 	 2.766546 
0.643411 	 0.031008 	 2.752509 
0.651163 	 0.031008 	 2.738313 
0.658915 	 0.031008 	 2.724027 
0.666667 	 0.031008 	 2.709728 
0.674419 	 0.031008 	 2.695499 
0.682171 	 0.031008 	 2.681430 
0.689922 	 0.031008 	 2.667618 
0.697674 	 0.031008 	 2.654167 
0.705426 	 0.031008 	 2.641189 
0.713178 	 0.031008 	 2.628806 
0.720930 	 0.031008 	 2.617146 
0.728682 	 0.031008 	 2.606350 
0.736434 	 0.031008 	 2.596570 
0.744186 	 0.031008 	 2.587967 
0.751938 	 0.031008 	 2.580713 
0.759690 	 0.031008 	 2.574992 
0.767442 	 0.031008 	 2.571016 
0.775194 	 0.031008 	 2.569014 
0.782946 	 0.031008 	 2.569238 
0.790698 	 0.031008 	 2.571965 
0.798450 	 0.031008 	 2.577501 
0.806202 	 0.031008 	 2.586195 
0.813953 	 0.031008 	 2.598434 
0.821705 	 0.031008 	 2.614660 
0.829457 	 0.031008 	 2.635381 
0.837209 	 0.031008 	 2.661184 
0.844961 	 0.031008 	 2.692745 
0.852713 	 0.031008 	 2.730894 
0.860465 	 0.031008 	 2.776685 
0.868217 	 0.031008 	 2.831454 
0.875969 	 0.031008 	 2.896932 
0.883721 	 0.031008 	 2.975427 
0.891473 	 0.031008 	 3.070110 
0.899225 	 0.031008 	 3.185427 
0.906977 	 0.031008 	 3.327630 
0.914729 	 0.031008 	 3.505297 
0.922481 	 0.031008 	 3.729171 
0.930233 	 0.031008 	 4.009309 
0.937984 	 0.031008 	 4.344721 
0.945736 	 0.031008 	 4.696424 
0.953488 	 0.031008 	 4.932164 
0.961240 	 0.031008 	 4.741432 
0.968992 	 0.031008 	 3.561912 
0.976744 	 0.031008 	 0.640502 
0.984496 	 0.031008 	 -4.572482 
0.992248 	 0.031008 	 -11.660957 
0.000000 	 0.038760 	 -2.709712 
0.007752 	 0.038760 	 -1.939235 
0.015504 	 0.038760 	 -1.261617 
0.023256 	 0.038760 	 -0.692930 
0.031008 	 0.038760 	 -0.223820 
0.038760 	 0.038760 	 0.162614 
0.046512 	 0.038760 	 0.483170 
0.054264 	 0.038760 	 0.751909 
0.062016 	 0.038760 	 0.979787 
0.069767 	 0.038760 	 1.175103 
0.077519 	 0.038760 	 1.344096 
0.085271 	 0.038760 	 1.491490 
0.093023 	 0.038760 	 1.620898 
0.100775 	 0.038760 	 1.735132 
0.108527 	 0.038760 	 1.836411 
0.116279 	 0.038760 	 1.926511 
0.124031 	 0.038760 	 2.006882 
0.131783 	 0.038760 	 2.078723 
0.139535 	 0.038760 	 2.143038 
0.147287 	 0.038760 	 2.200686 
0.155039 	 0.038760 	 2.252408 
0.162791 	 0.038760 	 2.298851 
0.170543 	 0.038760 	 2.340587 
0.178295 	 0.038760 	 2.378123 
0.186047 	 0.038760 	 2.411914 
0.193798 	 0.038760 	 2.442369 
0.201550 	 0.038760 	 2.469861 
0.209302 	 0.038760 	 2.494724 
0.217054 	 0.038760 	 2.517261 
0.224806 	 0.038760 	 2.537746 
0.232558 	 0.038760 	 2.556422 
0.240310 	 0.038760 	 2.573505 
0.248062 	 0.038760 	 2.589189 
0.255814 	 0.038760 	 2.603648 
0.263566 	 0.038760 	 2.617033 
0.271318 	 0.038760 	 2.629481 
0.279070 	 0.038760 	 2.641109 
0.286822 	 0.038760 	 2.652021 
0.294574 	 0.038760 	 2.662304 
0.302326 	 0.038760 	 2.672032 
0.310078 	 0.038760 	 2.681268 
0.317829 	 0.038760 	 2.690061 
0.325581 	 0.038760 	 2.698455 
0.333333 	 0.038760 	 2.706478 
0.341085 	 0.038760 	 2.714157 
0.348837 	 0.038760 	 2.721505 
0.356589 	 0.038760 	 2.728535 
0.364341 	 0.038760 	 2.735251 
0.372093 	 0.038760 	 2.741652 
0.379845 	 0.038760 	 2.747736 
0.387597 	 0.038760 	 2.753491 
0.395349 	 0.038760 	 2.758907 
0.403101 	 0.038760 	 2.763968 
0.410853 	 0.038760 	 2.768658 
0.418605 	 0.038760 	 2.772960 
0.426357 	 0.038760 	 2.776857 
0.434109 	 0.038760 	 2.780328 
0.441860 	 0.038760 	 2.783356 
0.449612 	 0.038760 	 2.785921 
0.457364 	 0.038760 	 2.788004 
0.465116 	 0.038760 	 2.789589 
0.472868 	 0.038760 	 2.790658 
0.480620 	 0.038760 	 2.791197 
0.488372 	 0.038760 	 2.791190 
0.496124 	 0.038760 	 2.790628 
0.503876 	 0.038760 	 2.789499 
0.511628 	 0.038760 	 2.787796 
0.519380 	 0.038760 	 2.785514 
0.527132 	 0.038760 	 2.782651 
0.534884 	 0.038760 	 2.779206 
0.542636 	 0.038760 	 2.775184 
0.550388 	 0.038760 	 2.770591 
0.558140 	 0.038760 	 2.765436 
0.565891 	 0.038760 	 2.759733 
0.573643 	 0.038760 	 2.753498 
0.581395 	 0.038760 	 2.746750 
0.589147 	 0.038760 	 2.739513 
0.596899 	 0.038760 	 2.731812 
0.604651 	 0.038760 	 2.723679 
0.612403 	 0.038760 	 2.715146 
0.620155 	 0.038760 	 2.706249 
0.627907 	 0.038760 	 2.697030 
0.635659 	 0.038760 	 2.687530 
0.643411 	 0.038760 	 2.677796 
0.651163 	 0.038760 	 2.667878 
0.658915 	 0.038760 	 2.657826 
0.666667 	 0.038760 	 2.647697 
0.674419 	 0.038760 	 2.637551 
0.682171 	 0.038760 	 2.627449 
0.689922 	 0.038760 	 2.617459 
0.697674 	 0.038760 	 2.607654 
0.705426 	 0.038760 	 2.598108 
0.713178 	 0.038760 	 2.588905 
0.720930 	 0.038760 	 2.580133 
0.728682 	 0.038760 	 2.571887 
0.736434 	 0.038760 	 2.564270 
0.744186 	 0.038760 	 2.557398 
0.751938 	 0.038760 	 2.551392 
0.759690 	 0.038760 	 2.546388 
0.767442 	 0.038760 	 2.542540 
0.775194 	 0.038760 	 2.540018 
0.782946 	 0.038760 	 2.539018 
0.790698 	 0.038760 	 2.539760 
0.798450 	 0.038760 	 2.542496 
0.806202 	 0.038760 	 2.547517 
0.813953 	 0.038760 	 2.555160 
0.821705 	 0.038760 	 2.565821 
0.829457 	 0.038760 	 2.579968 
0.837209 	 0.038760 	 2.598159 
0.844961 	 0.038760 	 2.621070 
0.852713 	 0.038760 	 2.649538 
0.860465 	 0.038760 	 2.684630 
0.868217 	 0.038760 	 2.727738 
0.875969 	 0.038760 	 2.780705 
0.883721 	 0.038760 	 2.846029 
0.891473 	 0.038760 	 2.927160 
0.899225 	 0.038760 	 3.028872 
0.906977 	 0.038760 	 3.157622 
0.914729 	 0.038760 	 3.321482 
0.922481 	 0.038760 	 3.528512 
0.930233 	 0.038760 	 3.780904 
0.937984 	 0.038760 	 4.059957 
0.945736 	 0.038760 	 4.295250 
0.953488 	 0.038760 	 4.315161 
0.961240 	 0.038760 	 3.793800 
0.968992 	 0.038760 	 2.247321 
0.976744 	 0.038760 	 -0.823233 
0.984496 	 0.038760 	 -5.559753 
0.992248 	 0.038760 	 -11.335863 
0.000000 	 0.046512 	 -2.459817 
0.007752 	 0.046512 	 -1.912964 
0.015504 	 0.046512 	 -1.411792 
0.023256 	 0.046512 	 -0.977927 
0.031008 	 0.046512 	 -0.609789 
0.038760 	 0.046512 	 -0.297567 
0.046512 	 0.046512 	 -0.030298 
0.054264 	 0.046512 	 0.201438 
0.062016 	 0.046512 	 0.404940 
0.069767 	 0.046512 	 0.585627 
0.077519 	 0.046512 	 0.747479 
0.085271 	 0.046512 	 0.893454 
0.093023 	 0.046512 	 1.025791 
0.100775 	 0.046512 	 1.146236 
0.108527 	 0.046512 	 1.256188 
0.116279 	 0.046512 	 1.356793 
0.124031 	 0.046512 	 1.449015 
0.131783 	 0.046512 	 1.533680 
0.139535 	 0.046512 	 1.611503 
0.147287 	 0.046512 	 1.683117 
0.155039 	 0.046512 	 1.749084 
0.162791 	 0.046512 	 1.809907 
0.170543 	 0.046512 	 1.866043 
0.178295 	 0.046512 	 1.917904 
0.186047 	 0.046512 	 1.965867 
0.193798 	 0.046512 	 2.010278 
0.201550 	 0.046512 	 2.051452 
0.209302 	 0.046512 	 2.089682 
0.217054 	 0.046512 	 2.125233 
0.224806 	 0.046512 	 2.158352 
0.232558 	 0.046512 	 2.189260 
0.240310 	 0.046512 	 2.218161 
0.248062 	 0.046512 	 2.245241 
0.255814 	 0.046512 	 2.270666 
0.263566 	 0.046512 	 2.294590 
0.271318 	 0.046512 	 2.317149 
0.279070 	 0.046512 	 2.338467 
0.286822 	 0.046512 	 2.358654 
0.294574 	 0.046512 	 2.377807 
0.302326 	 0.046512 	 2.396013 
0.310078 	 0.046512 	 2.413346 
0.317829 	 0.046512 	 2.429871 
0.325581 	 0.046512 	 2.445644 
0.333333 	 0.046512 	 2.460711 
0.341085 	 0.046512 	 2.475111 
0.348837 	 0.046512 	 2.488876 
0.356589 	 0.046512 	 2.502032 
0.364341 	 0.046512 	 2.514598 
0.372093 	 0.046512 	 2.526589 
0.379845 	 0.046512 	 2.538015 
0.387597 	 0.046512 	 2.548883 
0.395349 	 0.046512 	 2.559193 
0.403101 	 0.046512 	 2.568946 
0.410853 	 0.046512 	 2.578139 
0.418605 	 0.046512 	 2.586768 
0.426357 	 0.046512 	 2.594827 
0.434109 	 0.046512 	 2.602309 
0.441860 	 0.046512 	 2.609207 
0.449612 	 0.046512 	 2.615515 
0.457364 	 0.046512 	 2.621225 
0.465116 	 0.046512 	 2.626332 
0.472868 	 0.046512 	 2.630831 
0.480620 	 0.046512 	 2.634717 
0.488372 	 0.046512 	 2.637988 
0.496124 	 0.046512 	 2.640643 
0.503876 	 0.046512 	 2.642683 
0.511628 	 0.046512 	 2.644112 
0.519380 	 0.046512 	 2.644934 
0.527132 	 0.046512 	 2.645159 
0.534884 	 0.046512 	 2.644797 
0.542636 	 0.046512 	 2.643860 
0.550388 	 0.046512 	 2.642365 
0.558140 	 0.046512 	 2.640329 
0.565891 	 0.046512 	 2.637775 
0.573643 	 0.046512 	 2.634726 
0.581395 	 0.046512 	 2.631208 
0.589147 	 0.046512 	 2.627249 
0.596899 	 0.046512 	 2.622882 
0.604651 	 0.046512 	 2.618138 
0.612403 	 0.046512 	 2.613052 
0.620155 	 0.046512 	 2.607662 
0.627907 	 0.046512 	 2.602005 
0.635659 	 0.046512 	 2.596122 
0.643411 	 0.046512 	 2.590053 
0.651163 	 0.046512 	 2.583841 
0.658915 	 0.046512 	 2.577528 
0.666667 	 0.046512 	 2.571157 
0.674419 	 0.046512 	 2.564773 
0.682171 	 0.046512 	 2.558423 
0.689922 	 0.046512 	 2.552153 
0.697674 	 0.046512 	 2.546013 
0.705426 	 0.046512 	 2.540054 
0.713178 	 0.046512 	 2.534330 
0.720930 	 0.046512 	 2.528897 
0.728682 	 0.046512 	 2.523818 
0.736434 	 0.046512 	 2.519160 
0.744186 	 0.046512 	 2.514997 
0.751938 	 0.046512 	 2.511412 
0.759690 	 0.046512 	 2.508498 
0.767442 	 0.046512 	 2.506361 
0.775194 	 0.046512 	 2.505123 
0.782946 	 0.046512 	 2.504929 
0.790698 	 0.046512 	 2.505947 
0.798450 	 0.046512 	 2.508375 
0.806202 	 0.046512 	 2.512451 
0.813953 	 0.046512 	 2.518460 
0.821705 	 0.046512 	 2.526747 
0.829457 	 0.046512 	 2.537736 
0.837209 	 0.046512 	 2.551949 
0.844961 	 0.046512 	 2.570039 
0.852713 	 0.046512 	 2.592839 
0.860465 	 0.046512 	 2.621436 
0.868217 	 0.046512 	 2.657272 
0.875969 	 0.046512 	 2.702295 
0.883721 	 0.046512 	 2.759170 
0.891473 	 0.046512 	 2.831550 
0.899225 	 0.046512 	 2.924346 
0.906977 	 0.046512 	 3.043739 
0.914729 	 0.046512 	 3.196302 
0.922481 	 0.046512 	 3.385691 
0.930233 	 0.046512 	 3.604147 
0.937984 	 0.046512 	 3.814789 
0.945736 	 0.046512 	 3.921893 